 Entering Gaussian System, Link 0=gdv
 Initial command:
 /home/lijunj/Gauss/gdv-h37p/gdv/l1.exe "/scratch/lijunj/Gau-11346.inp" -scrdir="/scratch/lijunj/"
 Entering Link 1 = /home/lijunj/Gauss/gdv-h37p/gdv/l1.exe PID=     11347.
  
 Copyright (c) 1988,1990,1992,1993,1995,1998,2003,2009,2014,
            Gaussian, Inc.  All Rights Reserved.
  
 This is the private, development version of
 the Gaussian(R) DV system of programs. It is based on
 the Gaussian(R) 09 system (copyright 2009, Gaussian, Inc.),
 the Gaussian(R) 03 system (copyright 2003, Gaussian, Inc.),
 the Gaussian(R) 98 system (copyright 1998, Gaussian, Inc.),
 the Gaussian(R) 94 system (copyright 1995, Gaussian, Inc.),
 the Gaussian 92(TM) system (copyright 1992, Gaussian, Inc.),
 the Gaussian 90(TM) system (copyright 1990, Gaussian, Inc.),
 the Gaussian 88(TM) system (copyright 1988, Gaussian, Inc.),
 the Gaussian 86(TM) system (copyright 1986, Carnegie Mellon
 University), and the Gaussian 82(TM) system (copyright 1983,
 Carnegie Mellon University). Gaussian is a federally registered
 trademark of Gaussian, Inc.
  
 This software contains proprietary and confidential information,
 including trade secrets, belonging to Gaussian, Inc.
  
 This software is provided under written license and may be
 used, copied, transmitted, or stored only in accord with that
 written license.
  
 The following legend is applicable only to US Government
 contracts under FAR:
  
                    RESTRICTED RIGHTS LEGEND
  
 Use, reproduction and disclosure by the US Government is
 subject to restrictions as set forth in subparagraphs (a)
 and (c) of the Commercial Computer Software - Restricted
 Rights clause in FAR 52.227-19.
  
 Gaussian, Inc.
 340 Quinnipiac St., Bldg. 40, Wallingford CT 06492
  
  
 ---------------------------------------------------------------
 Warning -- This program may not be used in any manner that
 competes with the business of Gaussian, Inc. or will provide
 assistance to any competitor of Gaussian, Inc.  The licensee
 of this program is prohibited from giving any competitor of
 Gaussian, Inc. access to this program.  By using this program,
 the user acknowledges that Gaussian, Inc. is engaged in the
 business of creating and licensing software in the field of
 computational chemistry and represents and warrants to the
 licensee that it is not a competitor of Gaussian, Inc. and that
 it will not use this program in any manner prohibited above.
 ---------------------------------------------------------------
  

 Cite this work as:
 Gaussian Development Version, Revision H.37+,
 M. J. Frisch, G. W. Trucks, H. B. Schlegel, G. E. Scuseria, 
 M. A. Robb, J. R. Cheeseman, G. Scalmani, V. Barone, B. Mennucci, 
 G. A. Petersson, H. Nakatsuji, M. Caricato, X. Li, H. P. Hratchian, 
 A. F. Izmaylov, J. Bloino, B. G. Janesko, F. Lipparini, G. Zheng, 
 J. L. Sonnenberg, W. Liang, M. Hada, M. Ehara, K. Toyota, R. Fukuda, 
 J. Hasegawa, M. Ishida, T. Nakajima, Y. Honda, O. Kitao, H. Nakai, 
 T. Vreven, J. A. Montgomery, Jr., J. E. Peralta, F. Ogliaro, 
 M. Bearpark, J. J. Heyd, E. Brothers, K. N. Kudin, V. N. Staroverov, 
 T. Keith, R. Kobayashi, J. Normand, K. Raghavachari, A. Rendell, 
 J. C. Burant, S. S. Iyengar, J. Tomasi, M. Cossi, N. Rega, 
 J. M. Millam, M. Klene, J. E. Knox, J. B. Cross, V. Bakken, 
 C. Adamo, J. Jaramillo, R. Gomperts, R. E. Stratmann, O. Yazyev, 
 A. J. Austin, R. Cammi, C. Pomelli, J. W. Ochterski, R. L. Martin, 
 K. Morokuma, V. G. Zakrzewski, G. A. Voth, P. Salvador, 
 J. J. Dannenberg, S. Dapprich, P. V. Parandekar, N. J. Mayhall, 
 A. D. Daniels, O. Farkas, J. B. Foresman, J. V. Ortiz, 
 J. Cioslowski, and D. J. Fox, Gaussian, Inc., Wallingford CT, 2010.
 
 *******************************************
 Gaussian DV:  AM64L-GDVRevH.37+ 17-Apr-2014
                 20-Aug-2015 
 *******************************************
 %mem=200MB
 %chk=FHF.chk
 %nproc=1
 Will use up to    1 processors via shared memory.
 ------------------------
 #p pm6 iop(2/29=1) force
 ------------------------
 1/10=7,30=1,38=1/1,3;
 2/12=2,17=6,18=5,29=1,40=1/2;
 3/5=2,16=1,25=1,41=3900000,71=1/1,2,3;
 4/35=1/1;
 5/5=2,35=1,38=5/2;
 6/7=2,8=2,9=2,10=2,28=1/1;
 7/29=1/1,2,3,16;
 1/10=7,30=1/3;
 99//99;
 Leave Link    1 at Thu Aug 20 16:12:41 2015, MaxMem=    26214400 cpu:               0.0 elap:               0.2
 (Enter /home/lijunj/Gauss/gdv-h37p/gdv/l101.exe)
 -----
 title
 -----
 Symbolic Z-matrix:
 Charge =  1 Multiplicity = 1
 O                     0.00012  -0.00096  -0.38657 
 H                    -0.85216  -0.50636  -0.15451 
 H                    -0.011     0.99055  -0.15698 
 H                     0.86472  -0.48658  -0.1574 
 O                     2.21523  -1.1632    0.10996 
 O                    -2.11656  -1.33418   0.11002 
 O                    -0.09907   2.49855   0.10964 
 H                     2.47445  -1.63659   0.91221 
 H                     2.80572  -1.44497  -0.60258 
 H                    -2.65899  -1.32144   0.91029 
 H                    -2.65264  -1.70649  -0.60398 
 H                    -0.1495    3.15051  -0.60323 
 H                     0.1817    2.95971   0.91175 
 
 ITRead=  0  0  0  0  0  0  0  0  0  0  0  0  0
 MicOpt= -1 -1 -1 -1 -1 -1 -1 -1 -1 -1 -1 -1 -1
 NAtoms=     13 NQM=       13 NQMF=       0 NMMI=      0 NMMIF=      0
                NMic=       0 NMicF=      0.
                    Isotopes and Nuclear Properties:
 (Nuclear quadrupole moments (NQMom) in fm**2, nuclear magnetic moments (NMagM)
  in nuclear magnetons)

  Atom         1           2           3           4           5           6           7           8           9          10
 IAtWgt=          16           1           1           1          16          16          16           1           1           1
 AtmWgt=  15.9949146   1.0078250   1.0078250   1.0078250  15.9949146  15.9949146  15.9949146   1.0078250   1.0078250   1.0078250
 NucSpn=           0           1           1           1           0           0           0           1           1           1
 AtZEff=   0.0000000   0.0000000   0.0000000   0.0000000   0.0000000   0.0000000   0.0000000   0.0000000   0.0000000   0.0000000
 NQMom=    0.0000000   0.0000000   0.0000000   0.0000000   0.0000000   0.0000000   0.0000000   0.0000000   0.0000000   0.0000000
 NMagM=    0.0000000   2.7928460   2.7928460   2.7928460   0.0000000   0.0000000   0.0000000   2.7928460   2.7928460   2.7928460
 AtZNuc=   8.0000000   1.0000000   1.0000000   1.0000000   8.0000000   8.0000000   8.0000000   1.0000000   1.0000000   1.0000000

  Atom        11          12          13
 IAtWgt=           1           1           1
 AtmWgt=   1.0078250   1.0078250   1.0078250
 NucSpn=           1           1           1
 AtZEff=   0.0000000   0.0000000   0.0000000
 NQMom=    0.0000000   0.0000000   0.0000000
 NMagM=    2.7928460   2.7928460   2.7928460
 AtZNuc=   1.0000000   1.0000000   1.0000000
 Leave Link  101 at Thu Aug 20 16:12:42 2015, MaxMem=    26214400 cpu:               0.1 elap:               0.2
 (Enter /home/lijunj/Gauss/gdv-h37p/gdv/l103.exe)

 GradGradGradGradGradGradGradGradGradGradGradGradGradGradGradGradGradGrad
 Berny optimization.
 Initialization pass.
 Trust Radius=3.00D-01 FncErr=1.00D-07 GrdErr=1.00D-07 EigMax=2.50D+02 EigMin=1.00D-04
 Number of steps in this run=      2 maximum allowed number of steps=      2.
 GradGradGradGradGradGradGradGradGradGradGradGradGradGradGradGradGradGrad

 Leave Link  103 at Thu Aug 20 16:12:42 2015, MaxMem=    26214400 cpu:               0.0 elap:               0.0
 (Enter /home/lijunj/Gauss/gdv-h37p/gdv/l202.exe)
                          Input orientation:                          
 ---------------------------------------------------------------------
 Center     Atomic      Atomic             Coordinates (Angstroms)
 Number     Number       Type             X           Y           Z
 ---------------------------------------------------------------------
      1          8           0        0.000116   -0.000961   -0.386565
      2          1           0       -0.852163   -0.506364   -0.154508
      3          1           0       -0.011003    0.990547   -0.156979
      4          1           0        0.864723   -0.486579   -0.157400
      5          8           0        2.215230   -1.163198    0.109962
      6          8           0       -2.116563   -1.334184    0.110015
      7          8           0       -0.099071    2.498550    0.109641
      8          1           0        2.474453   -1.636585    0.912211
      9          1           0        2.805721   -1.444972   -0.602584
     10          1           0       -2.658992   -1.321437    0.910294
     11          1           0       -2.652639   -1.706489   -0.603982
     12          1           0       -0.149496    3.150512   -0.603231
     13          1           0        0.181701    2.959711    0.911754
 ---------------------------------------------------------------------
                    Distance matrix (angstroms):
                    1          2          3          4          5
     1  O    0.000000
     2  H    1.017675   0.000000
     3  H    1.017802   1.717061   0.000000
     4  H    1.017785   1.717002   1.717206   0.000000
     5  O    2.550307   3.148059   3.109017   1.534003   0.000000
     6  O    2.550374   1.534264   3.147863   3.110950   4.335166
     7  O    2.550218   3.109088   1.533922   3.148207   4.331788
     8  H    3.237967   3.671738   3.771271   2.248958   0.966900
     9  H    3.162792   3.802877   3.750233   2.210018   0.967367
    10  H    3.239808   2.250062   3.673716   3.775384   4.942025
    11  H    3.161203   2.209987   3.801586   3.749593   4.949851
    12  H    3.162453   3.750711   2.209925   3.802083   4.970781
    13  H    3.237929   3.770871   2.248762   3.672400   4.666529
                    6          7          8          9         10
     6  O    0.000000
     7  O    4.331296   0.000000
     8  H    4.670374   4.936242   0.000000
     9  H    4.974832   4.949389   1.562389   0.000000
    10  H    0.966870   4.667606   5.143110   5.671609   0.000000
    11  H    0.967357   4.971149   5.347037   5.464621   1.562478
    12  H    4.948795   0.967359   5.665507   5.463678   5.346649
    13  H    4.935822   0.966896   5.136404   5.346020   5.137876
                   11         12         13
    11  H    0.000000
    12  H    5.464081   0.000000
    13  H    5.666071   1.562458   0.000000
 Stoichiometry    H9O4(1+)
 Framework group  C1[X(H9O4)]
 Deg. of freedom    33
 Full point group                 C1      NOp   1
 Largest Abelian subgroup         C1      NOp   1
 Largest concise Abelian subgroup C1      NOp   1
                         Standard orientation:                         
 ---------------------------------------------------------------------
 Center     Atomic      Atomic             Coordinates (Angstroms)
 Number     Number       Type             X           Y           Z
 ---------------------------------------------------------------------
      1          8           0        0.000116   -0.000961   -0.386565
      2          1           0       -0.852133   -0.506414   -0.154508
      3          1           0       -0.011062    0.990546   -0.156979
      4          1           0        0.864752   -0.486528   -0.157400
      5          8           0        2.215299   -1.163067    0.109962
      6          8           0       -2.116484   -1.334309    0.110015
      7          8           0       -0.099219    2.498544    0.109641
      8          1           0        2.474550   -1.636439    0.912211
      9          1           0        2.805806   -1.444806   -0.602584
     10          1           0       -2.658914   -1.321594    0.910294
     11          1           0       -2.652538   -1.706646   -0.603982
     12          1           0       -0.149682    3.150503   -0.603231
     13          1           0        0.181526    2.959722    0.911754
 ---------------------------------------------------------------------
 Rotational constants (GHZ):      2.7107652      2.7051944      1.4040362
 Leave Link  202 at Thu Aug 20 16:12:42 2015, MaxMem=    26214400 cpu:               0.0 elap:               0.0
 (Enter /home/lijunj/Gauss/gdv-h37p/gdv/l301.exe)
 Standard basis: VSTO-6G (5D, 7F)
 Ernie: Thresh=  0.10000D-02 Tol=  0.10000D-05 Strict=F.
  NNHCO=     0 NNPyr=     0 NCTC=     0               EPep=         0.000000000
    EC=        81.406004479  ECS=         2.306388299   EG=         0.001092496
   EHC=         0.000045424  EAt=       -45.926787354  AtH=         1.126921631
 EPDDG=         0.000000000  ECC=        83.713530698 EAtT=        47.053708985
 There are    25 symmetry adapted cartesian basis functions of A   symmetry.
 There are    25 symmetry adapted basis functions of A   symmetry.
    25 basis functions,   150 primitive gaussians,    25 cartesian basis functions
    16 alpha electrons       16 beta electrons
       nuclear repulsion energy       130.7672396830 Hartrees.
 IExCor=    0 DFT=F Ex=HF Corr=None ExCW=0 ScaHFX=  1.000000
 ScaDFX=  1.000000  1.000000  1.000000  1.000000 ScalE2=  1.000000  1.000000
 IRadAn=      0 IRanWt=     -1 IRanGd=            0 ICorTp=0 IEmpDi=  4
 Integral buffers will be    131072 words long.
 Regular integral format.
 Two-electron integral symmetry is turned off.
 Leave Link  301 at Thu Aug 20 16:12:42 2015, MaxMem=    26214400 cpu:               0.1 elap:               0.1
 (Enter /home/lijunj/Gauss/gdv-h37p/gdv/l302.exe)
 Do NDO integrals.
 NPDir=0 NMtPBC=     1 NCelOv=     1 NCel=       1 NClECP=     1 NCelD=      1
         NCelK=      1 NCelE2=     1 NClLst=     1 CellRange=     0.0.
 One-electron integrals computed using PRISM.
 NBasis=    25 RedAO= F EigKep=  0.00D+00  NBF=    25
 NBsUse=    25 1.00D-04 EigRej=  0.00D+00 NBFU=    25
 Leave Link  302 at Thu Aug 20 16:12:42 2015, MaxMem=    26214400 cpu:               0.1 elap:               0.2
 (Enter /home/lijunj/Gauss/gdv-h37p/gdv/l303.exe)
 DipDrv:  MaxL=1.
 Leave Link  303 at Thu Aug 20 16:12:42 2015, MaxMem=    26214400 cpu:               0.0 elap:               0.0
 (Enter /home/lijunj/Gauss/gdv-h37p/gdv/l401.exe)
 Simple Huckel Guess.
 JPrj=0 DoOrth=F DoCkMO=F.
 Leave Link  401 at Thu Aug 20 16:12:43 2015, MaxMem=    26214400 cpu:               0.0 elap:               0.1
 (Enter /home/lijunj/Gauss/gdv-h37p/gdv/l502.exe)
 Keep J ints in memory in canonical form, NReq=860208.
 FoFCou: FMM=F IPFlag=           0 FMFlag=           0 FMFlg1=           0
         NFxFlg=           0 DoJE=F BraDBF=F KetDBF=F FulRan=T
         wScrn=  0.000000 ICntrl=       600 IOpCl=  2 I1Cent=           0 NGrid=           0
         NMat0=    1 NMatS0=     49 NMatT0=    0 NMatD0=    1 NMtDS0=    0 NMtDT0=    0
 Symmetry not used in FoFCou.
 Two-electron integral symmetry not used.
 Closed shell SCF:
 Using DIIS extrapolation, IDIIS=  1040.
 Overlap will be assumed to be unity.
 NGot=    26214400 LenX=    26152593 LenY=    26151527
 Requested convergence on RMS density matrix=1.00D-08 within 128 cycles.
 Requested convergence on MAX density matrix=1.00D-06.
 Requested convergence on             energy=1.00D-06.
 No special actions if energy rises.

 Cycle   1  Pass 1  IDiag  1:
 E= 0.211705154426028    
 DIIS: error= 5.35D-02 at cycle   1 NSaved=   1.
 NSaved= 1 IEnMin= 1 EnMin= 0.211705154426028     IErMin= 1 ErrMin= 5.35D-02
 ErrMax= 5.35D-02  0.00D+00 EMaxC= 1.00D-01 BMatC= 1.25D-01 BMatP= 1.25D-01
 IDIUse=3 WtCom= 4.65D-01 WtEn= 5.35D-01
 Coeff-Com:  0.100D+01
 Coeff-En:   0.100D+01
 Coeff:      0.100D+01
 GapD=    2.000 DampG=2.000 DampE=0.500 DampFc=1.0000 IDamp=-1.
 RMSDP=1.87D-02 MaxDP=1.39D-01              OVMax= 0.00D+00

 Cycle   2  Pass 1  IDiag  1:
 E=-0.819520737322819E-01 Delta-E=       -0.293657228158 Rises=F Damp=F
 DIIS: error= 1.44D-02 at cycle   2 NSaved=   2.
 NSaved= 2 IEnMin= 2 EnMin=-0.819520737322819E-01 IErMin= 2 ErrMin= 1.44D-02
 ErrMax= 1.44D-02  0.00D+00 EMaxC= 1.00D-01 BMatC= 1.01D-02 BMatP= 1.25D-01
 IDIUse=3 WtCom= 8.56D-01 WtEn= 1.44D-01
 Coeff-Com: -0.312D+00 0.131D+01
 Coeff-En:   0.000D+00 0.100D+01
 Coeff:     -0.267D+00 0.127D+01
 RMSDP=8.02D-03 MaxDP=4.62D-02 DE=-2.94D-01 OVMax= 0.00D+00

 Cycle   3  Pass 1  IDiag  3:
 E=-0.116652708145750     Delta-E=       -0.034700634413 Rises=F Damp=F
 DIIS: error= 3.76D-03 at cycle   3 NSaved=   3.
 NSaved= 3 IEnMin= 3 EnMin=-0.116652708145750     IErMin= 3 ErrMin= 3.76D-03
 ErrMax= 3.76D-03  0.00D+00 EMaxC= 1.00D-01 BMatC= 8.72D-04 BMatP= 1.01D-02
 IDIUse=3 WtCom= 9.62D-01 WtEn= 3.76D-02
 Coeff-Com:  0.231D+00-0.117D+01 0.194D+01
 Coeff-En:   0.000D+00 0.000D+00 0.100D+01
 Coeff:      0.222D+00-0.113D+01 0.191D+01
 Gap=     0.501 Goal=   None    Shift=    0.000
 RMSDP=4.55D-03 MaxDP=2.46D-02 DE=-3.47D-02 OVMax= 4.01D-02

 Cycle   4  Pass 1  IDiag  3:
 E=-0.121639084554431     Delta-E=       -0.004986376409 Rises=F Damp=F
 DIIS: error= 3.00D-04 at cycle   4 NSaved=   4.
 NSaved= 4 IEnMin= 4 EnMin=-0.121639084554431     IErMin= 4 ErrMin= 3.00D-04
 ErrMax= 3.00D-04  0.00D+00 EMaxC= 1.00D-01 BMatC= 7.17D-06 BMatP= 8.72D-04
 IDIUse=3 WtCom= 9.97D-01 WtEn= 3.00D-03
 Coeff-Com: -0.220D-01 0.129D+00-0.306D+00 0.120D+01
 Coeff-En:   0.000D+00 0.000D+00 0.000D+00 0.100D+01
 Coeff:     -0.220D-01 0.129D+00-0.305D+00 0.120D+01
 Gap=     0.502 Goal=   None    Shift=    0.000
 RMSDP=3.89D-04 MaxDP=2.13D-03 DE=-4.99D-03 OVMax= 3.46D-03

 Cycle   5  Pass 1  IDiag  3:
 E=-0.121675393149758     Delta-E=       -0.000036308595 Rises=F Damp=F
 DIIS: error= 6.15D-05 at cycle   5 NSaved=   5.
 NSaved= 5 IEnMin= 5 EnMin=-0.121675393149758     IErMin= 5 ErrMin= 6.15D-05
 ErrMax= 6.15D-05  0.00D+00 EMaxC= 1.00D-01 BMatC= 2.14D-07 BMatP= 7.17D-06
 IDIUse=1 WtCom= 1.00D+00 WtEn= 0.00D+00
 Coeff-Com:  0.290D-02-0.208D-01 0.664D-01-0.374D+00 0.133D+01
 Coeff:      0.290D-02-0.208D-01 0.664D-01-0.374D+00 0.133D+01
 Gap=     0.502 Goal=   None    Shift=    0.000
 RMSDP=5.46D-05 MaxDP=2.58D-04 DE=-3.63D-05 OVMax= 4.18D-04

 Cycle   6  Pass 1  IDiag  3:
 E=-0.121676462583423     Delta-E=       -0.000001069434 Rises=F Damp=F
 DIIS: error= 2.39D-05 at cycle   6 NSaved=   6.
 NSaved= 6 IEnMin= 6 EnMin=-0.121676462583423     IErMin= 6 ErrMin= 2.39D-05
 ErrMax= 2.39D-05  0.00D+00 EMaxC= 1.00D-01 BMatC= 1.78D-08 BMatP= 2.14D-07
 IDIUse=1 WtCom= 1.00D+00 WtEn= 0.00D+00
 Coeff-Com: -0.396D-03 0.488D-02-0.239D-01 0.170D+00-0.786D+00 0.164D+01
 Coeff:     -0.396D-03 0.488D-02-0.239D-01 0.170D+00-0.786D+00 0.164D+01
 Gap=     0.502 Goal=   None    Shift=    0.000
 RMSDP=2.10D-05 MaxDP=1.27D-04 DE=-1.07D-06 OVMax= 2.39D-04

 Cycle   7  Pass 1  IDiag  3:
 E=-0.121676568293424     Delta-E=       -0.000000105710 Rises=F Damp=F
 DIIS: error= 3.77D-06 at cycle   7 NSaved=   7.
 NSaved= 7 IEnMin= 7 EnMin=-0.121676568293424     IErMin= 7 ErrMin= 3.77D-06
 ErrMax= 3.77D-06  0.00D+00 EMaxC= 1.00D-01 BMatC= 4.93D-10 BMatP= 1.78D-08
 IDIUse=1 WtCom= 1.00D+00 WtEn= 0.00D+00
 Coeff-Com:  0.111D-03-0.141D-02 0.680D-02-0.470D-01 0.224D+00-0.576D+00
 Coeff-Com:  0.139D+01
 Coeff:      0.111D-03-0.141D-02 0.680D-02-0.470D-01 0.224D+00-0.576D+00
 Coeff:      0.139D+01
 Gap=     0.502 Goal=   None    Shift=    0.000
 RMSDP=3.10D-06 MaxDP=2.06D-05 DE=-1.06D-07 OVMax= 3.69D-05

 Cycle   8  Pass 1  IDiag  3:
 E=-0.121676570849274     Delta-E=       -0.000000002556 Rises=F Damp=F
 DIIS: error= 5.54D-07 at cycle   8 NSaved=   8.
 NSaved= 8 IEnMin= 8 EnMin=-0.121676570849274     IErMin= 8 ErrMin= 5.54D-07
 ErrMax= 5.54D-07  0.00D+00 EMaxC= 1.00D-01 BMatC= 2.05D-11 BMatP= 4.93D-10
 IDIUse=1 WtCom= 1.00D+00 WtEn= 0.00D+00
 Coeff-Com: -0.368D-04 0.431D-03-0.196D-02 0.131D-01-0.614D-01 0.170D+00
 Coeff-Com: -0.544D+00 0.142D+01
 Coeff:     -0.368D-04 0.431D-03-0.196D-02 0.131D-01-0.614D-01 0.170D+00
 Coeff:     -0.544D+00 0.142D+01
 Gap=     0.502 Goal=   None    Shift=    0.000
 RMSDP=6.35D-07 MaxDP=3.03D-06 DE=-2.56D-09 OVMax= 6.16D-06

 Cycle   9  Pass 1  IDiag  3:
 E=-0.121676570963359     Delta-E=       -0.000000000114 Rises=F Damp=F
 DIIS: error= 1.10D-07 at cycle   9 NSaved=   9.
 NSaved= 9 IEnMin= 9 EnMin=-0.121676570963359     IErMin= 9 ErrMin= 1.10D-07
 ErrMax= 1.10D-07  0.00D+00 EMaxC= 1.00D-01 BMatC= 8.00D-13 BMatP= 2.05D-11
 IDIUse=1 WtCom= 1.00D+00 WtEn= 0.00D+00
 Coeff-Com:  0.131D-04-0.142D-03 0.606D-03-0.390D-02 0.181D-01-0.507D-01
 Coeff-Com:  0.171D+00-0.582D+00 0.145D+01
 Coeff:      0.131D-04-0.142D-03 0.606D-03-0.390D-02 0.181D-01-0.507D-01
 Coeff:      0.171D+00-0.582D+00 0.145D+01
 Gap=     0.502 Goal=   None    Shift=    0.000
 RMSDP=1.45D-07 MaxDP=6.18D-07 DE=-1.14D-10 OVMax= 1.51D-06

 Cycle  10  Pass 1  IDiag  3:
 E=-0.121676570968589     Delta-E=       -0.000000000005 Rises=F Damp=F
 DIIS: error= 1.45D-08 at cycle  10 NSaved=  10.
 NSaved=10 IEnMin=10 EnMin=-0.121676570968589     IErMin=10 ErrMin= 1.45D-08
 ErrMax= 1.45D-08  0.00D+00 EMaxC= 1.00D-01 BMatC= 1.35D-14 BMatP= 8.00D-13
 IDIUse=1 WtCom= 1.00D+00 WtEn= 0.00D+00
 Coeff-Com: -0.281D-05 0.303D-04-0.124D-03 0.776D-03-0.356D-02 0.101D-01
 Coeff-Com: -0.353D-01 0.125D+00-0.393D+00 0.130D+01
 Coeff:     -0.281D-05 0.303D-04-0.124D-03 0.776D-03-0.356D-02 0.101D-01
 Coeff:     -0.353D-01 0.125D+00-0.393D+00 0.130D+01
 Gap=     0.502 Goal=   None    Shift=    0.000
 RMSDP=1.67D-08 MaxDP=7.98D-08 DE=-5.23D-12 OVMax= 1.36D-07

 Cycle  11  Pass 1  IDiag  3:
 E=-0.121676570968134     Delta-E=        0.000000000000 Rises=F Damp=F
 DIIS: error= 3.05D-09 at cycle  11 NSaved=  11.
 NSaved=11 IEnMin=10 EnMin=-0.121676570968589     IErMin=11 ErrMin= 3.05D-09
 ErrMax= 3.05D-09  0.00D+00 EMaxC= 1.00D-01 BMatC= 2.98D-16 BMatP= 1.35D-14
 IDIUse=1 WtCom= 1.00D+00 WtEn= 0.00D+00
 Coeff-Com:  0.472D-06-0.466D-05 0.173D-04-0.992D-04 0.441D-03-0.124D-02
 Coeff-Com:  0.468D-02-0.171D-01 0.599D-01-0.288D+00 0.124D+01
 Coeff:      0.472D-06-0.466D-05 0.173D-04-0.992D-04 0.441D-03-0.124D-02
 Coeff:      0.468D-02-0.171D-01 0.599D-01-0.288D+00 0.124D+01
 Gap=     0.502 Goal=   None    Shift=    0.000
 RMSDP=1.89D-09 MaxDP=1.13D-08 DE= 4.55D-13 OVMax= 1.38D-08

 Cycle  12  Pass 2  IDiag  1:
 SCF Done:  E(RPM6) = -0.121676570968     A.U. after   12 cycles
            NFock= 11  Conv=0.19D-08     -V/T= 0.9985
 KE=-8.076001824503D+01 PE=-1.524315787862D+02 EE= 1.023026807772D+02
 Leave Link  502 at Thu Aug 20 16:12:43 2015, MaxMem=    26214400 cpu:               0.0 elap:               0.2
 (Enter /home/lijunj/Gauss/gdv-h37p/gdv/l601.exe)
 Copying SCF densities to generalized density rwf, IOpCl= 0 IROHF=0.

 **********************************************************************

            Population analysis using the SCF density.

 **********************************************************************

 Orbital symmetries:
       Occupied  (A) (A) (A) (A) (A) (A) (A) (A) (A) (A) (A) (A)
                 (A) (A) (A) (A)
       Virtual   (A) (A) (A) (A) (A) (A) (A) (A) (A)
 The electronic state is 1-A.
 Alpha  occ. eigenvalues --   -1.34262  -1.27323  -1.27316  -1.26414  -0.92750
 Alpha  occ. eigenvalues --   -0.92749  -0.86672  -0.86639  -0.86634  -0.74260
 Alpha  occ. eigenvalues --   -0.69913  -0.69907  -0.67890  -0.62297  -0.62145
 Alpha  occ. eigenvalues --   -0.62140
 Alpha virt. eigenvalues --   -0.11992  -0.03889  -0.03884   0.00546   0.04658
 Alpha virt. eigenvalues --    0.04661   0.05213   0.05218   0.05227
          Condensed to atoms (all electrons):
               1          2          3          4          5          6
     1  O    6.460113   0.000000   0.000000   0.000000   0.000000   0.000000
     2  H    0.000000   0.590796   0.000000   0.000000   0.000000   0.000000
     3  H    0.000000   0.000000   0.590785   0.000000   0.000000   0.000000
     4  H    0.000000   0.000000   0.000000   0.590829   0.000000   0.000000
     5  O    0.000000   0.000000   0.000000   0.000000   6.643721   0.000000
     6  O    0.000000   0.000000   0.000000   0.000000   0.000000   6.643934
     7  O    0.000000   0.000000   0.000000   0.000000   0.000000   0.000000
     8  H    0.000000   0.000000   0.000000   0.000000   0.000000   0.000000
     9  H    0.000000   0.000000   0.000000   0.000000   0.000000   0.000000
    10  H    0.000000   0.000000   0.000000   0.000000   0.000000   0.000000
    11  H    0.000000   0.000000   0.000000   0.000000   0.000000   0.000000
    12  H    0.000000   0.000000   0.000000   0.000000   0.000000   0.000000
    13  H    0.000000   0.000000   0.000000   0.000000   0.000000   0.000000
               7          8          9         10         11         12
     1  O    0.000000   0.000000   0.000000   0.000000   0.000000   0.000000
     2  H    0.000000   0.000000   0.000000   0.000000   0.000000   0.000000
     3  H    0.000000   0.000000   0.000000   0.000000   0.000000   0.000000
     4  H    0.000000   0.000000   0.000000   0.000000   0.000000   0.000000
     5  O    0.000000   0.000000   0.000000   0.000000   0.000000   0.000000
     6  O    0.000000   0.000000   0.000000   0.000000   0.000000   0.000000
     7  O    6.643686   0.000000   0.000000   0.000000   0.000000   0.000000
     8  H    0.000000   0.640338   0.000000   0.000000   0.000000   0.000000
     9  H    0.000000   0.000000   0.638402   0.000000   0.000000   0.000000
    10  H    0.000000   0.000000   0.000000   0.640252   0.000000   0.000000
    11  H    0.000000   0.000000   0.000000   0.000000   0.638413   0.000000
    12  H    0.000000   0.000000   0.000000   0.000000   0.000000   0.638390
    13  H    0.000000   0.000000   0.000000   0.000000   0.000000   0.000000
              13
     1  O    0.000000
     2  H    0.000000
     3  H    0.000000
     4  H    0.000000
     5  O    0.000000
     6  O    0.000000
     7  O    0.000000
     8  H    0.000000
     9  H    0.000000
    10  H    0.000000
    11  H    0.000000
    12  H    0.000000
    13  H    0.640341
 Mulliken charges:
               1
     1  O   -0.460113
     2  H    0.409204
     3  H    0.409215
     4  H    0.409171
     5  O   -0.643721
     6  O   -0.643934
     7  O   -0.643686
     8  H    0.359662
     9  H    0.361598
    10  H    0.359748
    11  H    0.361587
    12  H    0.361610
    13  H    0.359659
 Sum of Mulliken charges =   1.00000
 Mulliken charges with hydrogens summed into heavy atoms:
               1
     1  O    0.767476
     5  O    0.077540
     6  O    0.077402
     7  O    0.077583
 Charge=              1.0000 electrons
 Dipole moment (field-independent basis, Debye):
    X=              0.0073    Y=             -0.0040    Z=              0.7810  Tot=              0.7810
 N-N= 1.307672396830D+02 E-N=-1.524315788139D+02  KE=-8.076001824503D+01
 Leave Link  601 at Thu Aug 20 16:12:43 2015, MaxMem=    26214400 cpu:               0.0 elap:               0.1
 (Enter /home/lijunj/Gauss/gdv-h37p/gdv/l701.exe)
 Compute integral first derivatives.
 ... and contract with generalized density number  0.
 Leave Link  701 at Thu Aug 20 16:12:43 2015, MaxMem=    26214400 cpu:               0.0 elap:               0.1
 (Enter /home/lijunj/Gauss/gdv-h37p/gdv/l702.exe)
 L702 exits ... SP integral derivatives will be done elsewhere.
 Leave Link  702 at Thu Aug 20 16:12:44 2015, MaxMem=    26214400 cpu:               0.0 elap:               0.0
 (Enter /home/lijunj/Gauss/gdv-h37p/gdv/l703.exe)
 Compute integral first derivatives, UseDBF=F ICtDFT=           0.
 Integral derivatives from FoFJK, PRISM(SPDF).
 Calling FoFJK, ICntrl=      2127 FMM=F ISym2X=0 I1Cent= 0 IOpClX= 0 NMat=1 NMatS=1 NMatT=0.
 FoFJK:  IHMeth=40 ICntrl=    2127 DoSepK=F KAlg= 0 I1Cent=           0 FoldK=F
 IRaf=         0 NMat=       1 IRICut=       1 DoRegI=T DoRafI=F ISym2E= 0.
 FoFCou: FMM=F IPFlag=           0 FMFlag=      100000 FMFlg1=         800
         NFxFlg=           0 DoJE=F BraDBF=F KetDBF=F FulRan=T
         wScrn=  0.000000 ICntrl=      2127 IOpCl=  0 I1Cent=           0 NGrid=           0
         NMat0=    1 NMatS0=      1 NMatT0=    0 NMatD0=    1 NMtDS0=    0 NMtDT0=    0
 Symmetry not used in FoFCou.
 Leave Link  703 at Thu Aug 20 16:12:44 2015, MaxMem=    26214400 cpu:               0.0 elap:               0.1
 (Enter /home/lijunj/Gauss/gdv-h37p/gdv/l716.exe)
 Dipole        = 2.86576800D-03-1.58525689D-03 3.07267423D-01
 ***** Axes restored to original set *****
 -------------------------------------------------------------------
 Center     Atomic                   Forces (Hartrees/Bohr)
 Number     Number              X              Y              Z
 -------------------------------------------------------------------
      1        8          -0.000022180   -0.000039033   -0.018452729
      2        1          -0.003486593   -0.000555101    0.005825755
      3        1           0.001267182    0.003323298    0.005815357
      4        1           0.002246328   -0.002729111    0.005813514
      5        8           0.009061251   -0.004414954    0.002067353
      6        8          -0.008381414   -0.005644219    0.002006313
      7        8          -0.000692423    0.010044689    0.002066805
      8        1          -0.003306517    0.002948674   -0.004771981
      9        1          -0.004655174    0.001913822    0.003040736
     10        1           0.004240511    0.001386317   -0.004764899
     11        1           0.003971911    0.003084176    0.003083170
     12        1           0.000664667   -0.004985882    0.003051154
     13        1          -0.000907548   -0.004332673   -0.004780547
 -------------------------------------------------------------------
 Cartesian Forces:  Max     0.018452729 RMS     0.005135994
 Z-matrix is all fixed cartesians, so copy forces.
 Force constants in Cartesian coordinates: 
                1             2             3             4             5 
      1  0.788071D+00
      2  0.437657D-04  0.788037D+00
      3 -0.110276D-02 -0.483633D-03  0.157612D+00
      4 -0.337286D+00 -0.136718D+00  0.794138D-01  0.333648D+00
      5 -0.136728D+00 -0.187826D+00  0.470690D-01  0.153379D+00  0.165962D+00
      6  0.105572D+00  0.625784D-01 -0.529342D-01 -0.826686D-01 -0.490042D-01
      7 -0.106763D+00  0.342073D-02  0.115168D-02  0.162144D-01 -0.338997D-01
      8  0.346639D-02 -0.418676D+00 -0.913395D-01  0.150256D-02 -0.346744D-02
      9  0.150311D-02 -0.121748D+00 -0.523838D-01 -0.570381D-02  0.133330D-01
     10 -0.344022D+00  0.133253D+00 -0.794627D-01 -0.125764D-01  0.172485D-01
     11  0.133218D+00 -0.181535D+00  0.447542D-01 -0.181636D-01  0.253310D-01
     12 -0.105973D+00  0.596531D-01 -0.522942D-01  0.895868D-02 -0.113977D-01
     13  0.000000D+00  0.000000D+00  0.000000D+00  0.000000D+00  0.000000D+00
     14  0.000000D+00  0.000000D+00  0.000000D+00  0.000000D+00  0.000000D+00
     15  0.000000D+00  0.000000D+00  0.000000D+00  0.000000D+00  0.000000D+00
     16  0.000000D+00  0.000000D+00  0.000000D+00  0.000000D+00  0.000000D+00
     17  0.000000D+00  0.000000D+00  0.000000D+00  0.000000D+00  0.000000D+00
     18  0.000000D+00  0.000000D+00  0.000000D+00  0.000000D+00  0.000000D+00
     19  0.000000D+00  0.000000D+00  0.000000D+00  0.000000D+00  0.000000D+00
     20  0.000000D+00  0.000000D+00  0.000000D+00  0.000000D+00  0.000000D+00
     21  0.000000D+00  0.000000D+00  0.000000D+00  0.000000D+00  0.000000D+00
     22  0.000000D+00  0.000000D+00  0.000000D+00  0.000000D+00  0.000000D+00
     23  0.000000D+00  0.000000D+00  0.000000D+00  0.000000D+00  0.000000D+00
     24  0.000000D+00  0.000000D+00  0.000000D+00  0.000000D+00  0.000000D+00
     25  0.000000D+00  0.000000D+00  0.000000D+00  0.000000D+00  0.000000D+00
     26  0.000000D+00  0.000000D+00  0.000000D+00  0.000000D+00  0.000000D+00
     27  0.000000D+00  0.000000D+00  0.000000D+00  0.000000D+00  0.000000D+00
     28  0.000000D+00  0.000000D+00  0.000000D+00  0.000000D+00  0.000000D+00
     29  0.000000D+00  0.000000D+00  0.000000D+00  0.000000D+00  0.000000D+00
     30  0.000000D+00  0.000000D+00  0.000000D+00  0.000000D+00  0.000000D+00
     31  0.000000D+00  0.000000D+00  0.000000D+00  0.000000D+00  0.000000D+00
     32  0.000000D+00  0.000000D+00  0.000000D+00  0.000000D+00  0.000000D+00
     33  0.000000D+00  0.000000D+00  0.000000D+00  0.000000D+00  0.000000D+00
     34  0.000000D+00  0.000000D+00  0.000000D+00  0.000000D+00  0.000000D+00
     35  0.000000D+00  0.000000D+00  0.000000D+00  0.000000D+00  0.000000D+00
     36  0.000000D+00  0.000000D+00  0.000000D+00  0.000000D+00  0.000000D+00
     37  0.000000D+00  0.000000D+00  0.000000D+00  0.000000D+00  0.000000D+00
     38  0.000000D+00  0.000000D+00  0.000000D+00  0.000000D+00  0.000000D+00
     39  0.000000D+00  0.000000D+00  0.000000D+00  0.000000D+00  0.000000D+00
                6             7             8             9            10 
      6  0.367651D-01
      7 -0.142803D-01  0.750284D-01
      8 -0.203335D-02 -0.389984D-02  0.424848D+00
      9  0.808978D-02 -0.116808D-02  0.950702D-01  0.362713D-01
     10 -0.862344D-02  0.155200D-01 -0.106911D-02  0.536878D-02  0.341078D+00
     11 -0.115408D-01  0.343789D-01 -0.270445D-02  0.133447D-01 -0.149433D+00
     12  0.807927D-02  0.142967D-01 -0.169735D-02  0.802269D-02  0.827174D-01
     13  0.000000D+00  0.000000D+00  0.000000D+00  0.000000D+00  0.000000D+00
     14  0.000000D+00  0.000000D+00  0.000000D+00  0.000000D+00  0.000000D+00
     15  0.000000D+00  0.000000D+00  0.000000D+00  0.000000D+00  0.000000D+00
     16  0.000000D+00  0.000000D+00  0.000000D+00  0.000000D+00  0.000000D+00
     17  0.000000D+00  0.000000D+00  0.000000D+00  0.000000D+00  0.000000D+00
     18  0.000000D+00  0.000000D+00  0.000000D+00  0.000000D+00  0.000000D+00
     19  0.000000D+00  0.000000D+00  0.000000D+00  0.000000D+00  0.000000D+00
     20  0.000000D+00  0.000000D+00  0.000000D+00  0.000000D+00  0.000000D+00
     21  0.000000D+00  0.000000D+00  0.000000D+00  0.000000D+00  0.000000D+00
     22  0.000000D+00  0.000000D+00  0.000000D+00  0.000000D+00  0.000000D+00
     23  0.000000D+00  0.000000D+00  0.000000D+00  0.000000D+00  0.000000D+00
     24  0.000000D+00  0.000000D+00  0.000000D+00  0.000000D+00  0.000000D+00
     25  0.000000D+00  0.000000D+00  0.000000D+00  0.000000D+00  0.000000D+00
     26  0.000000D+00  0.000000D+00  0.000000D+00  0.000000D+00  0.000000D+00
     27  0.000000D+00  0.000000D+00  0.000000D+00  0.000000D+00  0.000000D+00
     28  0.000000D+00  0.000000D+00  0.000000D+00  0.000000D+00  0.000000D+00
     29  0.000000D+00  0.000000D+00  0.000000D+00  0.000000D+00  0.000000D+00
     30  0.000000D+00  0.000000D+00  0.000000D+00  0.000000D+00  0.000000D+00
     31  0.000000D+00  0.000000D+00  0.000000D+00  0.000000D+00  0.000000D+00
     32  0.000000D+00  0.000000D+00  0.000000D+00  0.000000D+00  0.000000D+00
     33  0.000000D+00  0.000000D+00  0.000000D+00  0.000000D+00  0.000000D+00
     34  0.000000D+00  0.000000D+00  0.000000D+00  0.000000D+00  0.000000D+00
     35  0.000000D+00  0.000000D+00  0.000000D+00  0.000000D+00  0.000000D+00
     36  0.000000D+00  0.000000D+00  0.000000D+00  0.000000D+00  0.000000D+00
     37  0.000000D+00  0.000000D+00  0.000000D+00  0.000000D+00  0.000000D+00
     38  0.000000D+00  0.000000D+00  0.000000D+00  0.000000D+00  0.000000D+00
     39  0.000000D+00  0.000000D+00  0.000000D+00  0.000000D+00  0.000000D+00
               11            12            13            14            15 
     11  0.158908D+00
     12 -0.465581D-01  0.361922D-01
     13  0.000000D+00  0.000000D+00  0.309134D+00
     14  0.000000D+00  0.000000D+00 -0.228456D+00  0.230050D+00
     15  0.000000D+00  0.000000D+00 -0.114933D+00 -0.110264D+00  0.665169D+00
     16  0.000000D+00  0.000000D+00  0.000000D+00  0.000000D+00  0.000000D+00
     17  0.000000D+00  0.000000D+00  0.000000D+00  0.000000D+00  0.000000D+00
     18  0.000000D+00  0.000000D+00  0.000000D+00  0.000000D+00  0.000000D+00
     19  0.000000D+00  0.000000D+00  0.000000D+00  0.000000D+00  0.000000D+00
     20  0.000000D+00  0.000000D+00  0.000000D+00  0.000000D+00  0.000000D+00
     21  0.000000D+00  0.000000D+00  0.000000D+00  0.000000D+00  0.000000D+00
     22  0.000000D+00  0.000000D+00 -0.807395D-01  0.108154D+00 -0.124587D+00
     23  0.000000D+00  0.000000D+00  0.975788D-01 -0.153187D+00  0.222244D+00
     24  0.000000D+00  0.000000D+00 -0.908674D-01  0.193393D+00 -0.368757D+00
     25  0.000000D+00  0.000000D+00 -0.228394D+00  0.120303D+00  0.239520D+00
     26  0.000000D+00  0.000000D+00  0.130877D+00 -0.768630D-01 -0.111980D+00
     27  0.000000D+00  0.000000D+00  0.205800D+00 -0.831289D-01 -0.296413D+00
     28  0.000000D+00  0.000000D+00  0.000000D+00  0.000000D+00  0.000000D+00
     29  0.000000D+00  0.000000D+00  0.000000D+00  0.000000D+00  0.000000D+00
     30  0.000000D+00  0.000000D+00  0.000000D+00  0.000000D+00  0.000000D+00
     31  0.000000D+00  0.000000D+00  0.000000D+00  0.000000D+00  0.000000D+00
     32  0.000000D+00  0.000000D+00  0.000000D+00  0.000000D+00  0.000000D+00
     33  0.000000D+00  0.000000D+00  0.000000D+00  0.000000D+00  0.000000D+00
     34  0.000000D+00  0.000000D+00  0.000000D+00  0.000000D+00  0.000000D+00
     35  0.000000D+00  0.000000D+00  0.000000D+00  0.000000D+00  0.000000D+00
     36  0.000000D+00  0.000000D+00  0.000000D+00  0.000000D+00  0.000000D+00
     37  0.000000D+00  0.000000D+00  0.000000D+00  0.000000D+00  0.000000D+00
     38  0.000000D+00  0.000000D+00  0.000000D+00  0.000000D+00  0.000000D+00
     39  0.000000D+00  0.000000D+00  0.000000D+00  0.000000D+00  0.000000D+00
               16            17            18            19            20 
     16  0.447502D+00
     17  0.148303D+00  0.923954D-01
     18 -0.392719D-01  0.156076D+00  0.664561D+00
     19  0.000000D+00  0.000000D+00  0.000000D+00  0.521178D-01
     20  0.000000D+00  0.000000D+00  0.000000D+00  0.805311D-01  0.486949D+00
     21  0.000000D+00  0.000000D+00  0.000000D+00  0.152817D+00 -0.445046D-01
     22  0.000000D+00  0.000000D+00  0.000000D+00  0.000000D+00  0.000000D+00
     23  0.000000D+00  0.000000D+00  0.000000D+00  0.000000D+00  0.000000D+00
     24  0.000000D+00  0.000000D+00  0.000000D+00  0.000000D+00  0.000000D+00
     25  0.000000D+00  0.000000D+00  0.000000D+00  0.000000D+00  0.000000D+00
     26  0.000000D+00  0.000000D+00  0.000000D+00  0.000000D+00  0.000000D+00
     27  0.000000D+00  0.000000D+00  0.000000D+00  0.000000D+00  0.000000D+00
     28 -0.225800D+00 -0.145963D-01  0.255322D+00  0.000000D+00  0.000000D+00
     29 -0.252895D-01 -0.985587D-02 -0.354726D-02  0.000000D+00  0.000000D+00
     30  0.213513D+00 -0.183410D-01 -0.367102D+00  0.000000D+00  0.000000D+00
     31 -0.221701D+00 -0.133707D+00 -0.216050D+00  0.000000D+00  0.000000D+00
     32 -0.123013D+00 -0.825395D-01 -0.152528D+00  0.000000D+00  0.000000D+00
     33 -0.174241D+00 -0.137735D+00 -0.297459D+00  0.000000D+00  0.000000D+00
     34  0.000000D+00  0.000000D+00  0.000000D+00 -0.597088D-02 -0.282690D-02
     35  0.000000D+00  0.000000D+00  0.000000D+00  0.773886D-02 -0.299050D+00
     36  0.000000D+00  0.000000D+00  0.000000D+00 -0.306405D-01  0.219833D+00
     37  0.000000D+00  0.000000D+00  0.000000D+00 -0.461469D-01 -0.777042D-01
     38  0.000000D+00  0.000000D+00  0.000000D+00 -0.882699D-01 -0.187899D+00
     39  0.000000D+00  0.000000D+00  0.000000D+00 -0.122176D+00 -0.175328D+00
               21            22            23            24            25 
     21  0.665325D+00
     22  0.000000D+00  0.641367D-01
     23  0.000000D+00 -0.870111D-01  0.139730D+00
     24  0.000000D+00  0.102468D+00 -0.208165D+00  0.384212D+00
     25  0.000000D+00  0.166028D-01 -0.105676D-01 -0.116004D-01  0.211792D+00
     26  0.000000D+00 -0.211424D-01  0.134571D-01  0.147723D-01 -0.109735D+00
     27  0.000000D+00  0.221195D-01 -0.140790D-01 -0.154549D-01 -0.227920D+00
     28  0.000000D+00  0.000000D+00  0.000000D+00  0.000000D+00  0.000000D+00
     29  0.000000D+00  0.000000D+00  0.000000D+00  0.000000D+00  0.000000D+00
     30  0.000000D+00  0.000000D+00  0.000000D+00  0.000000D+00  0.000000D+00
     31  0.000000D+00  0.000000D+00  0.000000D+00  0.000000D+00  0.000000D+00
     32  0.000000D+00  0.000000D+00  0.000000D+00  0.000000D+00  0.000000D+00
     33  0.000000D+00  0.000000D+00  0.000000D+00  0.000000D+00  0.000000D+00
     34 -0.224612D-01  0.000000D+00  0.000000D+00  0.000000D+00  0.000000D+00
     35  0.263451D+00  0.000000D+00  0.000000D+00  0.000000D+00  0.000000D+00
     36 -0.296672D+00  0.000000D+00  0.000000D+00  0.000000D+00  0.000000D+00
     37 -0.130355D+00  0.000000D+00  0.000000D+00  0.000000D+00  0.000000D+00
     38 -0.218947D+00  0.000000D+00  0.000000D+00  0.000000D+00  0.000000D+00
     39 -0.368653D+00  0.000000D+00  0.000000D+00  0.000000D+00  0.000000D+00
               26            27            28            29            30 
     26  0.634059D-01
     27  0.972079D-01  0.311868D+00
     28  0.000000D+00  0.000000D+00  0.197829D+00
     29  0.000000D+00  0.000000D+00  0.106027D-01  0.775898D-02
     30  0.000000D+00  0.000000D+00 -0.232238D+00  0.156676D-01  0.382555D+00
     31  0.000000D+00  0.000000D+00  0.279712D-01  0.146867D-01  0.187249D-01
     32  0.000000D+00  0.000000D+00  0.399357D-02  0.209689D-02  0.267344D-02
     33  0.000000D+00  0.000000D+00 -0.230834D-01 -0.121203D-01 -0.154529D-01
     34  0.000000D+00  0.000000D+00  0.000000D+00  0.000000D+00  0.000000D+00
     35  0.000000D+00  0.000000D+00  0.000000D+00  0.000000D+00  0.000000D+00
     36  0.000000D+00  0.000000D+00  0.000000D+00  0.000000D+00  0.000000D+00
     37  0.000000D+00  0.000000D+00  0.000000D+00  0.000000D+00  0.000000D+00
     38  0.000000D+00  0.000000D+00  0.000000D+00  0.000000D+00  0.000000D+00
     39  0.000000D+00  0.000000D+00  0.000000D+00  0.000000D+00  0.000000D+00
               31            32            33            34            35 
     31  0.193730D+00
     32  0.119020D+00  0.804426D-01
     33  0.197325D+00  0.149855D+00  0.312912D+00
     34  0.000000D+00  0.000000D+00  0.000000D+00  0.544248D-02
     35  0.000000D+00  0.000000D+00  0.000000D+00 -0.905278D-02  0.269510D+00
     36  0.000000D+00  0.000000D+00  0.000000D+00  0.294762D-01 -0.246008D+00
     37  0.000000D+00  0.000000D+00  0.000000D+00  0.528407D-03  0.131392D-02
     38  0.000000D+00  0.000000D+00  0.000000D+00  0.118797D-01  0.295397D-01
     39  0.000000D+00  0.000000D+00  0.000000D+00 -0.701498D-02 -0.174432D-01
               36            37            38            39 
     36  0.312128D+00
     37  0.116428D-02  0.456185D-01
     38  0.261754D-01  0.763902D-01  0.158359D+00
     39 -0.154566D-01  0.129191D+00  0.192771D+00  0.384110D+00
 Leave Link  716 at Thu Aug 20 16:12:44 2015, MaxMem=    26214400 cpu:               0.0 elap:               0.0
 (Enter /home/lijunj/Gauss/gdv-h37p/gdv/l103.exe)

 GradGradGradGradGradGradGradGradGradGradGradGradGradGradGradGradGradGrad
 Berny optimization.
 Search for a local minimum.
 Step number   1 out of a maximum of    2
 All quantities printed in internal units (Hartrees-Bohrs-Radians)
 Second derivative matrix not updated -- first step.
 ITU=  0
     Eigenvalues ---    0.00000   0.00000   0.00000   0.00000   0.00000
     Eigenvalues ---    0.00000   0.00000   0.00000   0.00000   0.00000
     Eigenvalues ---    0.00000   0.00000   0.00000   0.00000   0.00000
     Eigenvalues ---    0.00000   0.00000   0.00000   0.10099   0.15532
     Eigenvalues ---    0.15533   0.15836   0.16428   0.16429   0.52299
     Eigenvalues ---    0.92026   0.92042   0.96873   1.09139   1.09148
     Eigenvalues ---    1.11369   1.15116   1.15139
 Eigenvalue     1 is  -1.89D-15 should be greater than     0.000000 Eigenvector:
                          Y9        Y8        X9        Y5        Z5
   1                    0.43892  -0.40371  -0.32956   0.29912   0.28744
                          X7        X11       X8        Y6        X12
   1                    0.19103  -0.17326   0.16408   0.14703  -0.14621
 Eigenvalue     2 is  -1.22D-15 should be greater than     0.000000 Eigenvector:
                          X8        Y8        X9        Z4        X7
   1                    0.55244   0.52859  -0.29812   0.23306   0.17339
                          Z9        Y12       Y4        X13       Z10
   1                   -0.16442   0.13618  -0.13555   0.13471  -0.12706
 Eigenvalue     3 is  -9.99D-16 should be greater than     0.000000 Eigenvector:
                          Y9        Y10       X13       X2        X4
   1                    0.35839  -0.29209   0.28302   0.28120   0.27959
                          X1        Y13       X6        X7        X10
   1                    0.25613  -0.24579  -0.23184  -0.21211  -0.19930
 Eigenvalue     4 is  -9.99D-16 should be greater than     0.000000 Eigenvector:
                          X12       X11       Y11       Y12       Y6
   1                    0.37521   0.36760  -0.36751  -0.36577   0.30113
                          Y9        X9        Y8        X2        X4
   1                    0.27259   0.18961   0.18757  -0.16406  -0.16324
 Eigenvalue     5 is  -8.88D-16 should be greater than     0.000000 Eigenvector:
                          X13       X8        Y5        Y8        Y10
   1                    0.53035  -0.50919   0.30393   0.24054  -0.21992
                          Y13       Y12       X5        X7        Y6
   1                   -0.17451   0.14289  -0.13730   0.13129  -0.13013
 Eigenvalue     6 is  -7.77D-16 should be greater than     0.000000 Eigenvector:
                          Z3        Y2        Z2        Z4        Y6
   1                    0.41556  -0.40713   0.39536  -0.32924   0.25501
                          X2        X4        X3        X12       Y3
   1                    0.21200   0.20539  -0.19580  -0.18879  -0.17795
 Eigenvalue     7 is  -3.33D-16 should be greater than     0.000000 Eigenvector:
                          Y6        X10       Y10       X12       Y9
   1                    0.43139   0.38625  -0.33191  -0.27241  -0.25714
                          Z3        Z2        X11       Z10       Y5
   1                   -0.25138  -0.24150   0.21797   0.17793  -0.14737
 Eigenvalue     8 is  -3.33D-16 should be greater than     0.000000 Eigenvector:
                          Y4        X3        X11       Y7        Y9
   1                    0.45194  -0.40971  -0.24092  -0.23315  -0.22109
                          X12       Y13       Y1        Y12       Y3
   1                    0.22072  -0.22029   0.21860  -0.21643   0.20868
 Eigenvalue     9 is  -1.11D-16 should be greater than     0.000000 Eigenvector:
                          X7        X12       Y9        X10       X5
   1                    0.51175  -0.34784   0.29400  -0.24968  -0.23588
                          Y6        Y4        X13       X11       Y12
   1                   -0.23309   0.21894  -0.20200   0.18645   0.17540
 Eigenvalue    10 is  -1.11D-16 should be greater than     0.000000 Eigenvector:
                          Y13       Y12       X12       X13       Z7
   1                    0.53806  -0.51019  -0.41951   0.29599   0.24574
                          Y11       Z13       Z12       X7        Z11
   1                    0.17805  -0.16237  -0.13797   0.09706  -0.08957
 Eigenvalue    11 is   0.00D+00 Eigenvector:
                          X9        X5        X10       X12       X6
   1                    0.47026   0.44866  -0.32815  -0.28213  -0.28208
                          Y6        Y9        Z4        Y5        Y1
   1                    0.21484  -0.20410   0.17039   0.15677  -0.12852
 Eigenvalue    12 is   0.00D+00 Eigenvector:
                          Y13       X11       X12       X6        Y7
   1                    0.39684  -0.29063   0.26758  -0.23801   0.23350
                          X13       Y2        X2        Y10       X4
   1                   -0.21627  -0.21243   0.19685  -0.19548   0.19531
 Eigenvalue    13 is   2.22D-16 Eigenvector:
                          X3        Y2        Y7        X13       X9
   1                    0.43985   0.30956  -0.27559  -0.26244  -0.25946
                          Y5        Y9        Y12       X8        Y13
   1                    0.25185  -0.24543  -0.22589  -0.22212  -0.20888
 Eigenvalue    14 is   2.22D-16 Eigenvector:
                          Z4        X9        Y8        X11       Y9
   1                    0.42822  -0.31997  -0.28399   0.26635  -0.25901
                          Z9        X10       Z8        Z1        X12
   1                   -0.23050  -0.22286  -0.19331   0.18809   0.18385
 Eigenvalue    15 is   4.44D-16 Eigenvector:
                          Y10       Y2        Y11       Z3        X11
   1                    0.58235  -0.27942   0.23891  -0.23541   0.22890
                          Z2        X10       Z6        X6        X2
   1                   -0.22848  -0.20747   0.17492   0.15711   0.15049
 Eigenvalue    16 is   6.66D-16 Eigenvector:
                          Y11       X13       Z4        Y10       Y4
   1                    0.62911  -0.36791   0.33920  -0.25421  -0.16231
                          Z11       Y5        X7        X12       Y1
   1                   -0.16129   0.15104   0.13961   0.12758  -0.12311
 Eigenvalue    17 is   1.11D-15 Eigenvector:
                          Z4        X11       Y10       X10       Y11
   1                    0.43596  -0.36316   0.36275   0.34154  -0.32146
                          X8        Z6        Y8        Z1        Z5
   1                   -0.24896  -0.24375   0.18609   0.17388  -0.16740
 Eigenvalue    18 is   1.13D-11 Eigenvector:
                          Z2        Z3        Y1        Z6        X1
   1                    0.69866  -0.68036  -0.10620  -0.06229  -0.06213
                          Z11       Z13       Z7        Z12       Z10
   1                   -0.06006   0.05869   0.05807   0.05704  -0.05617
 Quadratic step=5.583D+01 exceeds max=3.000D-01 adjusted using Lamda=-2.055D-02.
 Angle between NR and scaled steps=  25.72 degrees.
 Angle between quadratic step and forces=  62.87 degrees.
 Linear search not attempted -- first point.
 B after Tr=    -0.000017    0.000050   -0.001194
         Rot=    0.999996   -0.000005    0.000007   -0.002960 Ang=  -0.34 deg.
 Variable       Old X    -DE/DX   Delta X   Delta X   Delta X     New X
                                 (Linear)    (Quad)   (Total)
    X1        0.00022  -0.00002   0.00000  -0.00013  -0.00012   0.00010
    Y1       -0.00182  -0.00004   0.00000  -0.00019  -0.00013  -0.00194
    Z1       -0.73050  -0.01845   0.00000  -0.11488  -0.11607  -0.84658
    X2       -1.61035  -0.00349   0.00000  -0.01796  -0.01270  -1.62306
    Y2       -0.95689  -0.00056   0.00000   0.07175   0.06218  -0.89471
    Z2       -0.29198   0.00583   0.00000   0.02379   0.02257  -0.26941
    X3       -0.02079   0.00127   0.00000   0.07129   0.06032   0.03952
    Y3        1.87186   0.00332   0.00000  -0.02027  -0.01996   1.85191
    Z3       -0.29665   0.00582   0.00000   0.02346   0.02229  -0.27436
    X4        1.63409   0.00225   0.00000  -0.05298  -0.04728   1.58681
    Y4       -0.91950  -0.00273   0.00000  -0.05152  -0.04209  -0.96159
    Z4       -0.29744   0.00581   0.00000   0.02380   0.02262  -0.27483
    X5        4.18618   0.00906   0.00000   0.07932   0.09195   4.27813
    Y5       -2.19813  -0.00441   0.00000   0.04944   0.07478  -2.12335
    Z5        0.20780   0.00207   0.00000   0.03487   0.03371   0.24150
    X6       -3.99972  -0.00838   0.00000   0.00291   0.01844  -3.98129
    Y6       -2.52124  -0.00564   0.00000  -0.09266  -0.11624  -2.63748
    Z6        0.20790   0.00201   0.00000   0.03445   0.03317   0.24107
    X7       -0.18722  -0.00069   0.00000  -0.08225  -0.11048  -0.29770
    Y7        4.72158   0.01004   0.00000   0.04387   0.04224   4.76381
    Z7        0.20719   0.00207   0.00000   0.03486   0.03371   0.24090
    X8        4.67604  -0.00331   0.00000  -0.03809  -0.01953   4.65651
    Y8       -3.09270   0.00295   0.00000  -0.06345  -0.03591  -3.12860
    Z8        1.72383  -0.00477   0.00000  -0.00817  -0.00933   1.71450
    X9        5.30204  -0.00466   0.00000  -0.03720  -0.02081   5.28124
    Y9       -2.73060   0.00191   0.00000  -0.05341  -0.02213  -2.75273
    Z9       -1.13872   0.00304   0.00000  -0.00687  -0.00803  -1.14675
   X10       -5.02477   0.00424   0.00000  -0.03503  -0.02058  -5.04535
   Y10       -2.49715   0.00139   0.00000   0.06471   0.03482  -2.46233
   Z10        1.72021  -0.00476   0.00000  -0.00818  -0.00947   1.71074
   X11       -5.01276   0.00397   0.00000  -0.02831  -0.00947  -5.02223
   Y11       -3.22480   0.00308   0.00000   0.05818   0.02845  -3.19634
   Z11       -1.14136   0.00308   0.00000  -0.00657  -0.00787  -1.14923
   X12       -0.28251   0.00066   0.00000   0.06469   0.02948  -0.25303
   Y12        5.95360  -0.00499   0.00000  -0.00579  -0.00712   5.94648
   Z12       -1.13994   0.00305   0.00000  -0.00681  -0.00794  -1.14788
   X13        0.34337  -0.00091   0.00000   0.07395   0.04079   0.38416
   Y13        5.59304  -0.00433   0.00000  -0.00131   0.00109   5.59413
   Z13        1.72297  -0.00478   0.00000  -0.00821  -0.00934   1.71362
         Item               Value     Threshold  Converged?
 Maximum Force            0.018453     0.000450     NO 
 RMS     Force            0.005136     0.000300     NO 
 Maximum Displacement     0.116235     0.001800     NO 
 RMS     Displacement     0.045429     0.001200     NO 
 Predicted change in Energy=-3.128425D-03
 GradGradGradGradGradGradGradGradGradGradGradGradGradGradGradGradGradGrad

 Leave Link  103 at Thu Aug 20 16:12:44 2015, MaxMem=    26214400 cpu:               0.0 elap:               0.2
 (Enter /home/lijunj/Gauss/gdv-h37p/gdv/l9999.exe)

 Test job not archived.
 1\1\GINC-BL-CHEM-IYENGAR11\Force\RPM6\ZDO\H9O4(1+)\LIJUNJ\20-Aug-2015\
 0\\#p pm6 iop(2/29=1) force\\title\\1,1\O,0.000116,-0.000961,-0.386565
 \H,-0.852163,-0.506364,-0.154508\H,-0.011003,0.990547,-0.156979\H,0.86
 4723,-0.486579,-0.1574\O,2.21523,-1.163198,0.109962\O,-2.116563,-1.334
 184,0.110015\O,-0.099071,2.49855,0.109641\H,2.474453,-1.636585,0.91221
 1\H,2.805721,-1.444972,-0.602584\H,-2.658992,-1.321437,0.910294\H,-2.6
 52639,-1.706489,-0.603982\H,-0.149496,3.150512,-0.603231\H,0.181701,2.
 959711,0.911754\\Version=AM64L-GDVRevH.37+\State=1-A\HF=-0.1216766\RMS
 D=1.886e-09\RMSF=5.136e-03\Dipole=0.0028657,-0.0015854,0.3072674\PG=C0
 1 [X(H9O4)]\\@


 LIFE IS SO UNCERTAIN - EAT DESSERT FIRST.
 Job cpu time:       0 days  0 hours  0 minutes  0.9 seconds.
 Elapsed time:       0 days  0 hours  0 minutes  1.6 seconds.
 File lengths (MBytes):  RWF=      5 Int=      0 D2E=      0 Chk=      2 Scr=      1
 Normal termination of Gaussian DV at Thu Aug 20 16:12:44 2015.
