 Entering Gaussian System, Link 0=gdv
 Initial command:
 /home/lijunj/Gauss/gdv-h37p/gdv/l1.exe "/scratch/lijunj/Gau-11366.inp" -scrdir="/scratch/lijunj/"
 Entering Link 1 = /home/lijunj/Gauss/gdv-h37p/gdv/l1.exe PID=     11367.
  
 Copyright (c) 1988,1990,1992,1993,1995,1998,2003,2009,2014,
            Gaussian, Inc.  All Rights Reserved.
  
 This is the private, development version of
 the Gaussian(R) DV system of programs. It is based on
 the Gaussian(R) 09 system (copyright 2009, Gaussian, Inc.),
 the Gaussian(R) 03 system (copyright 2003, Gaussian, Inc.),
 the Gaussian(R) 98 system (copyright 1998, Gaussian, Inc.),
 the Gaussian(R) 94 system (copyright 1995, Gaussian, Inc.),
 the Gaussian 92(TM) system (copyright 1992, Gaussian, Inc.),
 the Gaussian 90(TM) system (copyright 1990, Gaussian, Inc.),
 the Gaussian 88(TM) system (copyright 1988, Gaussian, Inc.),
 the Gaussian 86(TM) system (copyright 1986, Carnegie Mellon
 University), and the Gaussian 82(TM) system (copyright 1983,
 Carnegie Mellon University). Gaussian is a federally registered
 trademark of Gaussian, Inc.
  
 This software contains proprietary and confidential information,
 including trade secrets, belonging to Gaussian, Inc.
  
 This software is provided under written license and may be
 used, copied, transmitted, or stored only in accord with that
 written license.
  
 The following legend is applicable only to US Government
 contracts under FAR:
  
                    RESTRICTED RIGHTS LEGEND
  
 Use, reproduction and disclosure by the US Government is
 subject to restrictions as set forth in subparagraphs (a)
 and (c) of the Commercial Computer Software - Restricted
 Rights clause in FAR 52.227-19.
  
 Gaussian, Inc.
 340 Quinnipiac St., Bldg. 40, Wallingford CT 06492
  
  
 ---------------------------------------------------------------
 Warning -- This program may not be used in any manner that
 competes with the business of Gaussian, Inc. or will provide
 assistance to any competitor of Gaussian, Inc.  The licensee
 of this program is prohibited from giving any competitor of
 Gaussian, Inc. access to this program.  By using this program,
 the user acknowledges that Gaussian, Inc. is engaged in the
 business of creating and licensing software in the field of
 computational chemistry and represents and warrants to the
 licensee that it is not a competitor of Gaussian, Inc. and that
 it will not use this program in any manner prohibited above.
 ---------------------------------------------------------------
  

 Cite this work as:
 Gaussian Development Version, Revision H.37+,
 M. J. Frisch, G. W. Trucks, H. B. Schlegel, G. E. Scuseria, 
 M. A. Robb, J. R. Cheeseman, G. Scalmani, V. Barone, B. Mennucci, 
 G. A. Petersson, H. Nakatsuji, M. Caricato, X. Li, H. P. Hratchian, 
 A. F. Izmaylov, J. Bloino, B. G. Janesko, F. Lipparini, G. Zheng, 
 J. L. Sonnenberg, W. Liang, M. Hada, M. Ehara, K. Toyota, R. Fukuda, 
 J. Hasegawa, M. Ishida, T. Nakajima, Y. Honda, O. Kitao, H. Nakai, 
 T. Vreven, J. A. Montgomery, Jr., J. E. Peralta, F. Ogliaro, 
 M. Bearpark, J. J. Heyd, E. Brothers, K. N. Kudin, V. N. Staroverov, 
 T. Keith, R. Kobayashi, J. Normand, K. Raghavachari, A. Rendell, 
 J. C. Burant, S. S. Iyengar, J. Tomasi, M. Cossi, N. Rega, 
 J. M. Millam, M. Klene, J. E. Knox, J. B. Cross, V. Bakken, 
 C. Adamo, J. Jaramillo, R. Gomperts, R. E. Stratmann, O. Yazyev, 
 A. J. Austin, R. Cammi, C. Pomelli, J. W. Ochterski, R. L. Martin, 
 K. Morokuma, V. G. Zakrzewski, G. A. Voth, P. Salvador, 
 J. J. Dannenberg, S. Dapprich, P. V. Parandekar, N. J. Mayhall, 
 A. D. Daniels, O. Farkas, J. B. Foresman, J. V. Ortiz, 
 J. Cioslowski, and D. J. Fox, Gaussian, Inc., Wallingford CT, 2010.
 
 *******************************************
 Gaussian DV:  AM64L-GDVRevH.37+ 17-Apr-2014
                 20-Aug-2015 
 *******************************************
 %mem=200MB
 %chk=FHF.chk
 %nproc=1
 Will use up to    1 processors via shared memory.
 ------------------------
 #p pm6 iop(2/29=1) force
 ------------------------
 1/10=7,30=1,38=1/1,3;
 2/12=2,17=6,18=5,29=1,40=1/2;
 3/5=2,16=1,25=1,41=3900000,71=1/1,2,3;
 4/35=1/1;
 5/5=2,35=1,38=5/2;
 6/7=2,8=2,9=2,10=2,28=1/1;
 7/29=1/1,2,3,16;
 1/10=7,30=1/3;
 99//99;
 Leave Link    1 at Thu Aug 20 16:12:50 2015, MaxMem=    26214400 cpu:               0.0 elap:               0.0
 (Enter /home/lijunj/Gauss/gdv-h37p/gdv/l101.exe)
 -----
 title
 -----
 Symbolic Z-matrix:
 Charge =  1 Multiplicity = 1
 O                     0.00012  -0.00096  -0.38657 
 H                    -0.85216  -0.50636  -0.15451 
 H                    -0.011     0.99055  -0.15698 
 H                     0.86472  -0.48658  -0.1574 
 O                     2.21523  -1.1632    0.10996 
 H                     2.47445  -1.63659   0.91221 
 H                     2.80572  -1.44497  -0.60258 
 
 ITRead=  0  0  0  0  0  0  0
 MicOpt= -1 -1 -1 -1 -1 -1 -1
 NAtoms=      7 NQM=        7 NQMF=       0 NMMI=      0 NMMIF=      0
                NMic=       0 NMicF=      0.
                    Isotopes and Nuclear Properties:
 (Nuclear quadrupole moments (NQMom) in fm**2, nuclear magnetic moments (NMagM)
  in nuclear magnetons)

  Atom         1           2           3           4           5           6           7
 IAtWgt=          16           1           1           1          16           1           1
 AtmWgt=  15.9949146   1.0078250   1.0078250   1.0078250  15.9949146   1.0078250   1.0078250
 NucSpn=           0           1           1           1           0           1           1
 AtZEff=   0.0000000   0.0000000   0.0000000   0.0000000   0.0000000   0.0000000   0.0000000
 NQMom=    0.0000000   0.0000000   0.0000000   0.0000000   0.0000000   0.0000000   0.0000000
 NMagM=    0.0000000   2.7928460   2.7928460   2.7928460   0.0000000   2.7928460   2.7928460
 AtZNuc=   8.0000000   1.0000000   1.0000000   1.0000000   8.0000000   1.0000000   1.0000000
 Leave Link  101 at Thu Aug 20 16:12:50 2015, MaxMem=    26214400 cpu:               0.2 elap:               0.2
 (Enter /home/lijunj/Gauss/gdv-h37p/gdv/l103.exe)

 GradGradGradGradGradGradGradGradGradGradGradGradGradGradGradGradGradGrad
 Berny optimization.
 Initialization pass.
 Trust Radius=3.00D-01 FncErr=1.00D-07 GrdErr=1.00D-07 EigMax=2.50D+02 EigMin=1.00D-04
 Number of steps in this run=      2 maximum allowed number of steps=      2.
 GradGradGradGradGradGradGradGradGradGradGradGradGradGradGradGradGradGrad

 Leave Link  103 at Thu Aug 20 16:12:50 2015, MaxMem=    26214400 cpu:               0.0 elap:               0.0
 (Enter /home/lijunj/Gauss/gdv-h37p/gdv/l202.exe)
                          Input orientation:                          
 ---------------------------------------------------------------------
 Center     Atomic      Atomic             Coordinates (Angstroms)
 Number     Number       Type             X           Y           Z
 ---------------------------------------------------------------------
      1          8           0        0.000116   -0.000961   -0.386565
      2          1           0       -0.852163   -0.506364   -0.154508
      3          1           0       -0.011003    0.990547   -0.156979
      4          1           0        0.864723   -0.486579   -0.157400
      5          8           0        2.215230   -1.163198    0.109962
      6          1           0        2.474453   -1.636585    0.912211
      7          1           0        2.805721   -1.444972   -0.602584
 ---------------------------------------------------------------------
                    Distance matrix (angstroms):
                    1          2          3          4          5
     1  O    0.000000
     2  H    1.017675   0.000000
     3  H    1.017802   1.717061   0.000000
     4  H    1.017785   1.717002   1.717206   0.000000
     5  O    2.550307   3.148059   3.109017   1.534003   0.000000
     6  H    3.237967   3.671738   3.771271   2.248958   0.966900
     7  H    3.162792   3.802877   3.750233   2.210018   0.967367
                    6          7
     6  H    0.000000
     7  H    1.562389   0.000000
 Stoichiometry    H5O2(1+)
 Framework group  C1[X(H5O2)]
 Deg. of freedom    15
 Full point group                 C1      NOp   1
 Largest Abelian subgroup         C1      NOp   1
 Largest concise Abelian subgroup C1      NOp   1
                         Standard orientation:                         
 ---------------------------------------------------------------------
 Center     Atomic      Atomic             Coordinates (Angstroms)
 Number     Number       Type             X           Y           Z
 ---------------------------------------------------------------------
      1          8           0        1.271667   -0.033362   -0.061199
      2          1           0        1.735731    0.852367   -0.250387
      3          1           0        1.710964   -0.604974    0.657271
      4          1           0        0.256152    0.014238   -0.012725
      5          8           0       -1.276921   -0.016587    0.030906
      6          1           0       -1.853885    0.613334    0.483904
      7          1           0       -1.806936   -0.475376   -0.635723
 ---------------------------------------------------------------------
 Rotational constants (GHZ):    172.6204435      7.6608341      7.6004834
 Leave Link  202 at Thu Aug 20 16:12:50 2015, MaxMem=    26214400 cpu:               0.0 elap:               0.0
 (Enter /home/lijunj/Gauss/gdv-h37p/gdv/l301.exe)
 Standard basis: VSTO-6G (5D, 7F)
 Ernie: Thresh=  0.10000D-02 Tol=  0.10000D-05 Strict=F.
  NNHCO=     0 NNPyr=     0 NCTC=     0               EPep=         0.000000000
    EC=        24.694377077  ECS=         1.208001266   EG=         0.003404817
   EHC=         0.000021587  EAt=       -23.170052728  AtH=         0.604975726
 EPDDG=         0.000000000  ECC=        25.905804747 EAtT=        23.775028454
 There are    13 symmetry adapted cartesian basis functions of A   symmetry.
 There are    13 symmetry adapted basis functions of A   symmetry.
    13 basis functions,    78 primitive gaussians,    13 cartesian basis functions
     8 alpha electrons        8 beta electrons
       nuclear repulsion energy        49.6808332013 Hartrees.
 IExCor=    0 DFT=F Ex=HF Corr=None ExCW=0 ScaHFX=  1.000000
 ScaDFX=  1.000000  1.000000  1.000000  1.000000 ScalE2=  1.000000  1.000000
 IRadAn=      0 IRanWt=     -1 IRanGd=            0 ICorTp=0 IEmpDi=  4
 Integral buffers will be    131072 words long.
 Regular integral format.
 Two-electron integral symmetry is turned off.
 Leave Link  301 at Thu Aug 20 16:12:50 2015, MaxMem=    26214400 cpu:               0.1 elap:               0.1
 (Enter /home/lijunj/Gauss/gdv-h37p/gdv/l302.exe)
 Do NDO integrals.
 NPDir=0 NMtPBC=     1 NCelOv=     1 NCel=       1 NClECP=     1 NCelD=      1
         NCelK=      1 NCelE2=     1 NClLst=     1 CellRange=     0.0.
 One-electron integrals computed using PRISM.
 NBasis=    13 RedAO= F EigKep=  0.00D+00  NBF=    13
 NBsUse=    13 1.00D-04 EigRej=  0.00D+00 NBFU=    13
 Leave Link  302 at Thu Aug 20 16:12:50 2015, MaxMem=    26214400 cpu:               0.1 elap:               0.1
 (Enter /home/lijunj/Gauss/gdv-h37p/gdv/l303.exe)
 DipDrv:  MaxL=1.
 Leave Link  303 at Thu Aug 20 16:12:50 2015, MaxMem=    26214400 cpu:               0.0 elap:               0.0
 (Enter /home/lijunj/Gauss/gdv-h37p/gdv/l401.exe)
 Simple Huckel Guess.
 JPrj=0 DoOrth=F DoCkMO=F.
 Leave Link  401 at Thu Aug 20 16:12:50 2015, MaxMem=    26214400 cpu:               0.0 elap:               0.0
 (Enter /home/lijunj/Gauss/gdv-h37p/gdv/l502.exe)
 Keep J ints in memory in canonical form, NReq=859296.
 FoFCou: FMM=F IPFlag=           0 FMFlag=           0 FMFlg1=           0
         NFxFlg=           0 DoJE=F BraDBF=F KetDBF=F FulRan=T
         wScrn=  0.000000 ICntrl=       600 IOpCl=  2 I1Cent=           0 NGrid=           0
         NMat0=    1 NMatS0=     25 NMatT0=    0 NMatD0=    1 NMtDS0=    0 NMtDT0=    0
 Symmetry not used in FoFCou.
 Two-electron integral symmetry not used.
 Closed shell SCF:
 Using DIIS extrapolation, IDIIS=  1040.
 Overlap will be assumed to be unity.
 NGot=    26214400 LenX=    26153925 LenY=    26153043
 Requested convergence on RMS density matrix=1.00D-08 within 128 cycles.
 Requested convergence on MAX density matrix=1.00D-06.
 Requested convergence on             energy=1.00D-06.
 No special actions if energy rises.

 Cycle   1  Pass 1  IDiag  1:
 E= 0.292417405751792    
 DIIS: error= 5.56D-02 at cycle   1 NSaved=   1.
 NSaved= 1 IEnMin= 1 EnMin= 0.292417405751792     IErMin= 1 ErrMin= 5.56D-02
 ErrMax= 5.56D-02  0.00D+00 EMaxC= 1.00D-01 BMatC= 7.35D-02 BMatP= 7.35D-02
 IDIUse=3 WtCom= 4.44D-01 WtEn= 5.56D-01
 Coeff-Com:  0.100D+01
 Coeff-En:   0.100D+01
 Coeff:      0.100D+01
 GapD=    2.000 DampG=2.000 DampE=0.500 DampFc=1.0000 IDamp=-1.
 RMSDP=2.72D-02 MaxDP=1.54D-01              OVMax= 0.00D+00

 Cycle   2  Pass 1  IDiag  1:
 E= 0.126209385843417     Delta-E=       -0.166208019908 Rises=F Damp=F
 DIIS: error= 1.46D-02 at cycle   2 NSaved=   2.
 NSaved= 2 IEnMin= 2 EnMin= 0.126209385843417     IErMin= 2 ErrMin= 1.46D-02
 ErrMax= 1.46D-02  0.00D+00 EMaxC= 1.00D-01 BMatC= 4.74D-03 BMatP= 7.35D-02
 IDIUse=3 WtCom= 8.54D-01 WtEn= 1.46D-01
 Coeff-Com: -0.275D+00 0.128D+01
 Coeff-En:   0.000D+00 0.100D+01
 Coeff:     -0.235D+00 0.124D+01
 RMSDP=1.00D-02 MaxDP=4.40D-02 DE=-1.66D-01 OVMax= 0.00D+00

 Cycle   3  Pass 1  IDiag  3:
 E= 0.111016595319370     Delta-E=       -0.015192790524 Rises=F Damp=F
 DIIS: error= 3.61D-03 at cycle   3 NSaved=   3.
 NSaved= 3 IEnMin= 3 EnMin= 0.111016595319370     IErMin= 3 ErrMin= 3.61D-03
 ErrMax= 3.61D-03  0.00D+00 EMaxC= 1.00D-01 BMatC= 3.80D-04 BMatP= 4.74D-03
 IDIUse=3 WtCom= 9.64D-01 WtEn= 3.61D-02
 Coeff-Com:  0.208D+00-0.115D+01 0.195D+01
 Coeff-En:   0.000D+00 0.000D+00 0.100D+01
 Coeff:      0.201D+00-0.111D+01 0.191D+01
 Gap=     0.462 Goal=   None    Shift=    0.000
 RMSDP=5.84D-03 MaxDP=2.26D-02 DE=-1.52D-02 OVMax= 2.72D-02

 Cycle   4  Pass 1  IDiag  3:
 E= 0.108798537326862     Delta-E=       -0.002218057993 Rises=F Damp=F
 DIIS: error= 5.15D-04 at cycle   4 NSaved=   4.
 NSaved= 4 IEnMin= 4 EnMin= 0.108798537326862     IErMin= 4 ErrMin= 5.15D-04
 ErrMax= 5.15D-04  0.00D+00 EMaxC= 1.00D-01 BMatC= 4.90D-06 BMatP= 3.80D-04
 IDIUse=3 WtCom= 9.95D-01 WtEn= 5.15D-03
 Coeff-Com: -0.337D-01 0.206D+00-0.457D+00 0.129D+01
 Coeff-En:   0.000D+00 0.000D+00 0.000D+00 0.100D+01
 Coeff:     -0.335D-01 0.205D+00-0.455D+00 0.128D+01
 Gap=     0.462 Goal=   None    Shift=    0.000
 RMSDP=6.75D-04 MaxDP=2.03D-03 DE=-2.22D-03 OVMax= 3.39D-03

 Cycle   5  Pass 1  IDiag  3:
 E= 0.108770613242591     Delta-E=       -0.000027924084 Rises=F Damp=F
 DIIS: error= 7.30D-05 at cycle   5 NSaved=   5.
 NSaved= 5 IEnMin= 5 EnMin= 0.108770613242591     IErMin= 5 ErrMin= 7.30D-05
 ErrMax= 7.30D-05  0.00D+00 EMaxC= 1.00D-01 BMatC= 2.48D-07 BMatP= 4.90D-06
 IDIUse=1 WtCom= 1.00D+00 WtEn= 0.00D+00
 Coeff-Com:  0.750D-02-0.543D-01 0.151D+00-0.604D+00 0.150D+01
 Coeff:      0.750D-02-0.543D-01 0.151D+00-0.604D+00 0.150D+01
 Gap=     0.462 Goal=   None    Shift=    0.000
 RMSDP=1.21D-04 MaxDP=3.40D-04 DE=-2.79D-05 OVMax= 5.83D-04

 Cycle   6  Pass 1  IDiag  3:
 E= 0.108769357063764     Delta-E=       -0.000001256179 Rises=F Damp=F
 DIIS: error= 2.82D-05 at cycle   6 NSaved=   6.
 NSaved= 6 IEnMin= 6 EnMin= 0.108769357063764     IErMin= 6 ErrMin= 2.82D-05
 ErrMax= 2.82D-05  0.00D+00 EMaxC= 1.00D-01 BMatC= 1.50D-08 BMatP= 2.48D-07
 IDIUse=1 WtCom= 1.00D+00 WtEn= 0.00D+00
 Coeff-Com: -0.178D-02 0.166D-01-0.583D-01 0.275D+00-0.874D+00 0.164D+01
 Coeff:     -0.178D-02 0.166D-01-0.583D-01 0.275D+00-0.874D+00 0.164D+01
 Gap=     0.462 Goal=   None    Shift=    0.000
 RMSDP=4.09D-05 MaxDP=1.43D-04 DE=-1.26D-06 OVMax= 3.07D-04

 Cycle   7  Pass 1  IDiag  3:
 E= 0.108769262490533     Delta-E=       -0.000000094573 Rises=F Damp=F
 DIIS: error= 3.33D-06 at cycle   7 NSaved=   7.
 NSaved= 7 IEnMin= 7 EnMin= 0.108769262490533     IErMin= 7 ErrMin= 3.33D-06
 ErrMax= 3.33D-06  0.00D+00 EMaxC= 1.00D-01 BMatC= 4.01D-10 BMatP= 1.50D-08
 IDIUse=1 WtCom= 1.00D+00 WtEn= 0.00D+00
 Coeff-Com:  0.614D-03-0.653D-02 0.246D-01-0.119D+00 0.382D+00-0.788D+00
 Coeff-Com:  0.151D+01
 Coeff:      0.614D-03-0.653D-02 0.246D-01-0.119D+00 0.382D+00-0.788D+00
 Coeff:      0.151D+01
 Gap=     0.462 Goal=   None    Shift=    0.000
 RMSDP=5.28D-06 MaxDP=1.41D-05 DE=-9.46D-08 OVMax= 2.97D-05

 Cycle   8  Pass 1  IDiag  3:
 E= 0.108769260477232     Delta-E=       -0.000000002013 Rises=F Damp=F
 DIIS: error= 6.40D-07 at cycle   8 NSaved=   8.
 NSaved= 8 IEnMin= 8 EnMin= 0.108769260477232     IErMin= 8 ErrMin= 6.40D-07
 ErrMax= 6.40D-07  0.00D+00 EMaxC= 1.00D-01 BMatC= 1.20D-11 BMatP= 4.01D-10
 IDIUse=1 WtCom= 1.00D+00 WtEn= 0.00D+00
 Coeff-Com: -0.953D-04 0.122D-02-0.486D-02 0.238D-01-0.768D-01 0.159D+00
 Coeff-Com: -0.398D+00 0.130D+01
 Coeff:     -0.953D-04 0.122D-02-0.486D-02 0.238D-01-0.768D-01 0.159D+00
 Coeff:     -0.398D+00 0.130D+01
 Gap=     0.462 Goal=   None    Shift=    0.000
 RMSDP=8.99D-07 MaxDP=2.95D-06 DE=-2.01D-09 OVMax= 4.45D-06

 Cycle   9  Pass 1  IDiag  3:
 E= 0.108769260416395     Delta-E=       -0.000000000061 Rises=F Damp=F
 DIIS: error= 1.50D-07 at cycle   9 NSaved=   9.
 NSaved= 9 IEnMin= 9 EnMin= 0.108769260416395     IErMin= 9 ErrMin= 1.50D-07
 ErrMax= 1.50D-07  0.00D+00 EMaxC= 1.00D-01 BMatC= 5.34D-13 BMatP= 1.20D-11
 IDIUse=1 WtCom= 1.00D+00 WtEn= 0.00D+00
 Coeff-Com:  0.173D-04-0.206D-03 0.754D-03-0.341D-02 0.104D-01-0.191D-01
 Coeff-Com:  0.603D-01-0.384D+00 0.133D+01
 Coeff:      0.173D-04-0.206D-03 0.754D-03-0.341D-02 0.104D-01-0.191D-01
 Coeff:      0.603D-01-0.384D+00 0.133D+01
 Gap=     0.462 Goal=   None    Shift=    0.000
 RMSDP=2.16D-07 MaxDP=8.85D-07 DE=-6.08D-11 OVMax= 1.40D-06

 Cycle  10  Pass 1  IDiag  3:
 E= 0.108769260413347     Delta-E=       -0.000000000003 Rises=F Damp=F
 DIIS: error= 2.22D-08 at cycle  10 NSaved=  10.
 NSaved=10 IEnMin=10 EnMin= 0.108769260413347     IErMin=10 ErrMin= 2.22D-08
 ErrMax= 2.22D-08  0.00D+00 EMaxC= 1.00D-01 BMatC= 2.13D-14 BMatP= 5.34D-13
 IDIUse=1 WtCom= 1.00D+00 WtEn= 0.00D+00
 Coeff-Com: -0.210D-05 0.180D-04-0.356D-04 0.305D-04 0.141D-03-0.161D-02
 Coeff-Com: -0.117D-02 0.747D-01-0.479D+00 0.141D+01
 Coeff:     -0.210D-05 0.180D-04-0.356D-04 0.305D-04 0.141D-03-0.161D-02
 Coeff:     -0.117D-02 0.747D-01-0.479D+00 0.141D+01
 Gap=     0.462 Goal=   None    Shift=    0.000
 RMSDP=4.66D-08 MaxDP=1.47D-07 DE=-3.05D-12 OVMax= 2.67D-07

 Cycle  11  Pass 1  IDiag  3:
 E= 0.108769260413148     Delta-E=        0.000000000000 Rises=F Damp=F
 DIIS: error= 2.36D-09 at cycle  11 NSaved=  11.
 NSaved=11 IEnMin=11 EnMin= 0.108769260413148     IErMin=11 ErrMin= 2.36D-09
 ErrMax= 2.36D-09  0.00D+00 EMaxC= 1.00D-01 BMatC= 2.37D-16 BMatP= 2.13D-14
 IDIUse=1 WtCom= 1.00D+00 WtEn= 0.00D+00
 Coeff-Com: -0.139D-07 0.306D-06-0.770D-05 0.699D-04-0.270D-03 0.928D-03
 Coeff-Com: -0.676D-03-0.171D-01 0.123D+00-0.415D+00 0.131D+01
 Coeff:     -0.139D-07 0.306D-06-0.770D-05 0.699D-04-0.270D-03 0.928D-03
 Coeff:     -0.676D-03-0.171D-01 0.123D+00-0.415D+00 0.131D+01
 Gap=     0.462 Goal=   None    Shift=    0.000
 RMSDP=4.12D-09 MaxDP=1.12D-08 DE=-1.99D-13 OVMax= 1.99D-08

 Cycle  12  Pass 2  IDiag  1:
 SCF Done:  E(RPM6) =  0.108769260413     A.U. after   12 cycles
            NFock= 11  Conv=0.41D-08     -V/T= 1.0027
 KE=-4.008571712683D+01 PE=-4.355175780475D+01 EE= 3.406541099073D+01
 Leave Link  502 at Thu Aug 20 16:12:50 2015, MaxMem=    26214400 cpu:               0.0 elap:               0.0
 (Enter /home/lijunj/Gauss/gdv-h37p/gdv/l601.exe)
 Copying SCF densities to generalized density rwf, IOpCl= 0 IROHF=0.

 **********************************************************************

            Population analysis using the SCF density.

 **********************************************************************

 Orbital symmetries:
       Occupied  (A) (A) (A) (A) (A) (A) (A) (A)
       Virtual   (A) (A) (A) (A) (A)
 The electronic state is 1-A.
 Alpha  occ. eigenvalues --   -1.41559  -1.30137  -0.98970  -0.98375  -0.89765
 Alpha  occ. eigenvalues --   -0.76942  -0.74007  -0.65577
 Alpha virt. eigenvalues --   -0.19364  -0.07655  -0.06855  -0.01127   0.02339
          Condensed to atoms (all electrons):
               1          2          3          4          5          6
     1  O    6.362090   0.000000   0.000000   0.000000   0.000000   0.000000
     2  H    0.000000   0.579035   0.000000   0.000000   0.000000   0.000000
     3  H    0.000000   0.000000   0.576634   0.000000   0.000000   0.000000
     4  H    0.000000   0.000000   0.000000   0.578594   0.000000   0.000000
     5  O    0.000000   0.000000   0.000000   0.000000   6.645656   0.000000
     6  H    0.000000   0.000000   0.000000   0.000000   0.000000   0.629813
     7  H    0.000000   0.000000   0.000000   0.000000   0.000000   0.000000
               7
     1  O    0.000000
     2  H    0.000000
     3  H    0.000000
     4  H    0.000000
     5  O    0.000000
     6  H    0.000000
     7  H    0.628178
 Mulliken charges:
               1
     1  O   -0.362090
     2  H    0.420965
     3  H    0.423366
     4  H    0.421406
     5  O   -0.645656
     6  H    0.370187
     7  H    0.371822
 Sum of Mulliken charges =   1.00000
 Mulliken charges with hydrogens summed into heavy atoms:
               1
     1  O    0.903647
     5  O    0.096353
 Charge=              1.0000 electrons
 Dipole moment (field-independent basis, Debye):
    X=              2.4235    Y=              1.0722    Z=              0.6735  Tot=              2.7343
 N-N= 4.968083320127D+01 E-N=-4.355175782188D+01  KE=-4.008571712683D+01
 Leave Link  601 at Thu Aug 20 16:12:50 2015, MaxMem=    26214400 cpu:               0.0 elap:               0.0
 (Enter /home/lijunj/Gauss/gdv-h37p/gdv/l701.exe)
 Compute integral first derivatives.
 ... and contract with generalized density number  0.
 Leave Link  701 at Thu Aug 20 16:12:51 2015, MaxMem=    26214400 cpu:               0.0 elap:               0.0
 (Enter /home/lijunj/Gauss/gdv-h37p/gdv/l702.exe)
 L702 exits ... SP integral derivatives will be done elsewhere.
 Leave Link  702 at Thu Aug 20 16:12:51 2015, MaxMem=    26214400 cpu:               0.0 elap:               0.0
 (Enter /home/lijunj/Gauss/gdv-h37p/gdv/l703.exe)
 Compute integral first derivatives, UseDBF=F ICtDFT=           0.
 Integral derivatives from FoFJK, PRISM(SPDF).
 Calling FoFJK, ICntrl=      2127 FMM=F ISym2X=0 I1Cent= 0 IOpClX= 0 NMat=1 NMatS=1 NMatT=0.
 FoFJK:  IHMeth=40 ICntrl=    2127 DoSepK=F KAlg= 0 I1Cent=           0 FoldK=F
 IRaf=         0 NMat=       1 IRICut=       1 DoRegI=T DoRafI=F ISym2E= 0.
 FoFCou: FMM=F IPFlag=           0 FMFlag=      100000 FMFlg1=         800
         NFxFlg=           0 DoJE=F BraDBF=F KetDBF=F FulRan=T
         wScrn=  0.000000 ICntrl=      2127 IOpCl=  0 I1Cent=           0 NGrid=           0
         NMat0=    1 NMatS0=      1 NMatT0=    0 NMatD0=    1 NMtDS0=    0 NMtDT0=    0
 Symmetry not used in FoFCou.
 Leave Link  703 at Thu Aug 20 16:12:51 2015, MaxMem=    26214400 cpu:               0.0 elap:               0.0
 (Enter /home/lijunj/Gauss/gdv-h37p/gdv/l716.exe)
 Dipole        = 9.53460174D-01 4.21838623D-01 2.64988311D-01
 ***** Axes restored to original set *****
 -------------------------------------------------------------------
 Center     Atomic                   Forces (Hartrees/Bohr)
 Number     Number              X              Y              Z
 -------------------------------------------------------------------
      1        8          -0.025674110    0.013735496   -0.015327378
      2        1           0.014222437    0.010711489    0.002770327
      3        1          -0.001227858   -0.017185099    0.003007243
      4        1           0.018408491   -0.011212045    0.010581176
      5        8           0.001104694   -0.000363200    0.000517408
      6        1          -0.003053275    0.002538505   -0.003265721
      7        1          -0.003780380    0.001774854    0.001716946
 -------------------------------------------------------------------
 Cartesian Forces:  Max     0.025674110 RMS     0.010552147
 Z-matrix is all fixed cartesians, so copy forces.
 Force constants in Cartesian coordinates: 
                1             2             3             4             5 
      1  0.788071D+00
      2  0.437657D-04  0.788037D+00
      3 -0.110276D-02 -0.483633D-03  0.157612D+00
      4 -0.337286D+00 -0.136718D+00  0.794138D-01  0.333648D+00
      5 -0.136728D+00 -0.187826D+00  0.470690D-01  0.153379D+00  0.165962D+00
      6  0.105572D+00  0.625784D-01 -0.529342D-01 -0.826686D-01 -0.490042D-01
      7 -0.106763D+00  0.342073D-02  0.115168D-02  0.162144D-01 -0.338997D-01
      8  0.346639D-02 -0.418676D+00 -0.913395D-01  0.150256D-02 -0.346744D-02
      9  0.150311D-02 -0.121748D+00 -0.523838D-01 -0.570381D-02  0.133330D-01
     10 -0.344022D+00  0.133253D+00 -0.794627D-01 -0.125764D-01  0.172485D-01
     11  0.133218D+00 -0.181535D+00  0.447542D-01 -0.181636D-01  0.253310D-01
     12 -0.105973D+00  0.596531D-01 -0.522942D-01  0.895868D-02 -0.113977D-01
     13  0.000000D+00  0.000000D+00  0.000000D+00  0.000000D+00  0.000000D+00
     14  0.000000D+00  0.000000D+00  0.000000D+00  0.000000D+00  0.000000D+00
     15  0.000000D+00  0.000000D+00  0.000000D+00  0.000000D+00  0.000000D+00
     16  0.000000D+00  0.000000D+00  0.000000D+00  0.000000D+00  0.000000D+00
     17  0.000000D+00  0.000000D+00  0.000000D+00  0.000000D+00  0.000000D+00
     18  0.000000D+00  0.000000D+00  0.000000D+00  0.000000D+00  0.000000D+00
     19  0.000000D+00  0.000000D+00  0.000000D+00  0.000000D+00  0.000000D+00
     20  0.000000D+00  0.000000D+00  0.000000D+00  0.000000D+00  0.000000D+00
     21  0.000000D+00  0.000000D+00  0.000000D+00  0.000000D+00  0.000000D+00
                6             7             8             9            10 
      6  0.367651D-01
      7 -0.142803D-01  0.750284D-01
      8 -0.203335D-02 -0.389984D-02  0.424848D+00
      9  0.808978D-02 -0.116808D-02  0.950702D-01  0.362713D-01
     10 -0.862344D-02  0.155200D-01 -0.106911D-02  0.536878D-02  0.341078D+00
     11 -0.115408D-01  0.343789D-01 -0.270445D-02  0.133447D-01 -0.149433D+00
     12  0.807927D-02  0.142967D-01 -0.169735D-02  0.802269D-02  0.827174D-01
     13  0.000000D+00  0.000000D+00  0.000000D+00  0.000000D+00  0.000000D+00
     14  0.000000D+00  0.000000D+00  0.000000D+00  0.000000D+00  0.000000D+00
     15  0.000000D+00  0.000000D+00  0.000000D+00  0.000000D+00  0.000000D+00
     16  0.000000D+00  0.000000D+00  0.000000D+00  0.000000D+00  0.000000D+00
     17  0.000000D+00  0.000000D+00  0.000000D+00  0.000000D+00  0.000000D+00
     18  0.000000D+00  0.000000D+00  0.000000D+00  0.000000D+00  0.000000D+00
     19  0.000000D+00  0.000000D+00  0.000000D+00  0.000000D+00  0.000000D+00
     20  0.000000D+00  0.000000D+00  0.000000D+00  0.000000D+00  0.000000D+00
     21  0.000000D+00  0.000000D+00  0.000000D+00  0.000000D+00  0.000000D+00
               11            12            13            14            15 
     11  0.158908D+00
     12 -0.465581D-01  0.361922D-01
     13  0.000000D+00  0.000000D+00  0.309134D+00
     14  0.000000D+00  0.000000D+00 -0.228456D+00  0.230050D+00
     15  0.000000D+00  0.000000D+00 -0.114933D+00 -0.110264D+00  0.665169D+00
     16  0.000000D+00  0.000000D+00 -0.807395D-01  0.108154D+00 -0.124587D+00
     17  0.000000D+00  0.000000D+00  0.975788D-01 -0.153187D+00  0.222244D+00
     18  0.000000D+00  0.000000D+00 -0.908674D-01  0.193393D+00 -0.368757D+00
     19  0.000000D+00  0.000000D+00 -0.228394D+00  0.120303D+00  0.239520D+00
     20  0.000000D+00  0.000000D+00  0.130877D+00 -0.768630D-01 -0.111980D+00
     21  0.000000D+00  0.000000D+00  0.205800D+00 -0.831289D-01 -0.296413D+00
               16            17            18            19            20 
     16  0.641367D-01
     17 -0.870111D-01  0.139730D+00
     18  0.102468D+00 -0.208165D+00  0.384212D+00
     19  0.166028D-01 -0.105676D-01 -0.116004D-01  0.211792D+00
     20 -0.211424D-01  0.134571D-01  0.147723D-01 -0.109735D+00  0.634059D-01
     21  0.221195D-01 -0.140790D-01 -0.154549D-01 -0.227920D+00  0.972079D-01
               21 
     21  0.311868D+00
 Leave Link  716 at Thu Aug 20 16:12:51 2015, MaxMem=    26214400 cpu:               0.0 elap:               0.0
 (Enter /home/lijunj/Gauss/gdv-h37p/gdv/l103.exe)

 GradGradGradGradGradGradGradGradGradGradGradGradGradGradGradGradGradGrad
 Berny optimization.
 Search for a local minimum.
 Step number   1 out of a maximum of    2
 All quantities printed in internal units (Hartrees-Bohrs-Radians)
 Second derivative matrix not updated -- first step.
 ITU=  0
     Eigenvalues ---    0.00000   0.00000   0.00000   0.00000   0.00000
     Eigenvalues ---    0.00000   0.09147   0.15344   0.16134   0.16375
     Eigenvalues ---    0.50944   0.89049   1.01119   1.08351   1.11543
 Eigenvalue     1 is  -9.99D-16 should be greater than     0.000000 Eigenvector:
                          X7        X6        Y6        Z5        Z7
   1                    0.64512  -0.39249   0.37265  -0.33050   0.24823
                          Z4        Y5        Y7        X3        Z1
   1                    0.19936  -0.15001  -0.14652  -0.08882   0.08703
 Eigenvalue     2 is  -7.77D-16 should be greater than     0.000000 Eigenvector:
                          Z4        Z3        Z2        X3        X6
   1                    0.74618  -0.32666  -0.29832  -0.21547   0.19811
                          Y6        X5        Y4        X2        X4
   1                   -0.17358   0.14861   0.14701  -0.14331  -0.14251
 Eigenvalue     3 is  -3.33D-16 should be greater than     0.000000 Eigenvector:
                          X5        Y7        Z4        X3        X1
   1                    0.42990  -0.39431  -0.36964  -0.32419  -0.28969
                          Y6        X7        Y4        X4        X2
   1                   -0.27935   0.22051   0.20933  -0.18316  -0.18051
 Eigenvalue     4 is   0.00D+00 Eigenvector:
                          Y4        X6        X3        Y5        X2
   1                    0.46187   0.39744  -0.35967  -0.35069   0.27253
                          X5        X4        Y2        Y6        Y7
   1                   -0.26571   0.26402  -0.26317   0.17924   0.13360
 Eigenvalue     5 is   4.44D-16 Eigenvector:
                          X6        Y7        X7        Y2        Y5
   1                    0.50947   0.39831   0.31292   0.30084  -0.29075
                          X2        X4        Y4        X3        Y6
   1                   -0.27134  -0.26518  -0.24502   0.20454   0.13569
 Eigenvalue     6 is   5.22D-12 Eigenvector:
                          Z2        Z3        Y6        Y7        X7
   1                    0.47685  -0.46098  -0.45753   0.43094   0.22148
                          X6        Z6        Y4        X2        X4
   1                   -0.22065  -0.14060   0.13112   0.08019   0.07787
 Quadratic step=5.518D+01 exceeds max=3.000D-01 adjusted using Lamda=-2.244D-02.
 Angle between NR and scaled steps=  35.10 degrees.
 Angle between quadratic step and forces=  63.85 degrees.
 Linear search not attempted -- first point.
 B after Tr=    -0.004166    0.001796   -0.029004
         Rot=    0.999996    0.001638    0.002240   -0.001139 Ang=   0.34 deg.
 Variable       Old X    -DE/DX   Delta X   Delta X   Delta X     New X
                                 (Linear)    (Quad)   (Total)
    X1        0.00022  -0.02567   0.00000   0.05692   0.05644   0.05666
    Y1       -0.00182   0.01374   0.00000  -0.03834  -0.03904  -0.04085
    Z1       -0.73050  -0.01533   0.00000  -0.07259  -0.10120  -0.83170
    X2       -1.61035   0.01422   0.00000   0.09294   0.09189  -1.51847
    Y2       -0.95689   0.01071   0.00000   0.03316   0.03077  -0.92612
    Z2       -0.29198   0.00277   0.00000   0.07073   0.03797  -0.25401
    X3       -0.02079  -0.00123   0.00000   0.05756   0.05037   0.02958
    Y3        1.87186  -0.01719   0.00000  -0.10487  -0.10373   1.76814
    Z3       -0.29665   0.00301   0.00000   0.07588   0.04124  -0.25541
    X4        1.63409   0.01841   0.00000   0.05537   0.05436   1.68845
    Y4       -0.91950  -0.01121   0.00000  -0.06517  -0.06019  -0.97969
    Z4       -0.29744   0.01058   0.00000   0.08785   0.06964  -0.22780
    X5        4.18618   0.00110   0.00000  -0.06232  -0.06261   4.12357
    Y5       -2.19813  -0.00036   0.00000   0.06780   0.07971  -2.11842
    Z5        0.20780   0.00052   0.00000  -0.00543  -0.00899   0.19881
    X6        4.67604  -0.00305   0.00000  -0.09299  -0.09786   4.57818
    Y6       -3.09270   0.00254   0.00000   0.02820   0.04605  -3.04664
    Z6        1.72383  -0.00327   0.00000  -0.02621  -0.02467   1.69916
    X7        5.30204  -0.00378   0.00000  -0.09966  -0.09259   5.20945
    Y7       -2.73060   0.00177   0.00000   0.03649   0.04642  -2.68418
    Z7       -1.13872   0.00172   0.00000  -0.01713  -0.01400  -1.15271
         Item               Value     Threshold  Converged?
 Maximum Force            0.025674     0.000450     NO 
 RMS     Force            0.010552     0.000300     NO 
 Maximum Displacement     0.103725     0.001800     NO 
 RMS     Displacement     0.063916     0.001200     NO 
 Predicted change in Energy=-4.208976D-03
 GradGradGradGradGradGradGradGradGradGradGradGradGradGradGradGradGradGrad

 Leave Link  103 at Thu Aug 20 16:12:51 2015, MaxMem=    26214400 cpu:               0.0 elap:               0.0
 (Enter /home/lijunj/Gauss/gdv-h37p/gdv/l9999.exe)

 Test job not archived.
 1\1\GINC-BL-CHEM-IYENGAR11\Force\RPM6\ZDO\H5O2(1+)\LIJUNJ\20-Aug-2015\
 0\\#p pm6 iop(2/29=1) force\\title\\1,1\O,0.000116,-0.000961,-0.386565
 \H,-0.852163,-0.506364,-0.154508\H,-0.011003,0.990547,-0.156979\H,0.86
 4723,-0.486579,-0.1574\O,2.21523,-1.163198,0.109962\H,2.474453,-1.6365
 85,0.912211\H,2.805721,-1.444972,-0.602584\\Version=AM64L-GDVRevH.37+\
 State=1-A\HF=0.1087693\RMSD=4.118e-09\RMSF=1.055e-02\Dipole=-0.9938113
 ,0.2931442,0.2892379\PG=C01 [X(H5O2)]\\@


 A people that values its privileges above its principles soon loses both.
 -- Dwight D. Eisenhower
 Job cpu time:       0 days  0 hours  0 minutes  0.8 seconds.
 Elapsed time:       0 days  0 hours  0 minutes  0.6 seconds.
 File lengths (MBytes):  RWF=      5 Int=      0 D2E=      0 Chk=      2 Scr=      1
 Normal termination of Gaussian DV at Thu Aug 20 16:12:51 2015.
