 Entering Gaussian System, Link 0=gdv
 Initial command:
 /home/lijunj/Gauss/gdv-h37p/gdv/l1.exe "/scratch/lijunj/Gau-11356.inp" -scrdir="/scratch/lijunj/"
 Entering Link 1 = /home/lijunj/Gauss/gdv-h37p/gdv/l1.exe PID=     11357.
  
 Copyright (c) 1988,1990,1992,1993,1995,1998,2003,2009,2014,
            Gaussian, Inc.  All Rights Reserved.
  
 This is the private, development version of
 the Gaussian(R) DV system of programs. It is based on
 the Gaussian(R) 09 system (copyright 2009, Gaussian, Inc.),
 the Gaussian(R) 03 system (copyright 2003, Gaussian, Inc.),
 the Gaussian(R) 98 system (copyright 1998, Gaussian, Inc.),
 the Gaussian(R) 94 system (copyright 1995, Gaussian, Inc.),
 the Gaussian 92(TM) system (copyright 1992, Gaussian, Inc.),
 the Gaussian 90(TM) system (copyright 1990, Gaussian, Inc.),
 the Gaussian 88(TM) system (copyright 1988, Gaussian, Inc.),
 the Gaussian 86(TM) system (copyright 1986, Carnegie Mellon
 University), and the Gaussian 82(TM) system (copyright 1983,
 Carnegie Mellon University). Gaussian is a federally registered
 trademark of Gaussian, Inc.
  
 This software contains proprietary and confidential information,
 including trade secrets, belonging to Gaussian, Inc.
  
 This software is provided under written license and may be
 used, copied, transmitted, or stored only in accord with that
 written license.
  
 The following legend is applicable only to US Government
 contracts under FAR:
  
                    RESTRICTED RIGHTS LEGEND
  
 Use, reproduction and disclosure by the US Government is
 subject to restrictions as set forth in subparagraphs (a)
 and (c) of the Commercial Computer Software - Restricted
 Rights clause in FAR 52.227-19.
  
 Gaussian, Inc.
 340 Quinnipiac St., Bldg. 40, Wallingford CT 06492
  
  
 ---------------------------------------------------------------
 Warning -- This program may not be used in any manner that
 competes with the business of Gaussian, Inc. or will provide
 assistance to any competitor of Gaussian, Inc.  The licensee
 of this program is prohibited from giving any competitor of
 Gaussian, Inc. access to this program.  By using this program,
 the user acknowledges that Gaussian, Inc. is engaged in the
 business of creating and licensing software in the field of
 computational chemistry and represents and warrants to the
 licensee that it is not a competitor of Gaussian, Inc. and that
 it will not use this program in any manner prohibited above.
 ---------------------------------------------------------------
  

 Cite this work as:
 Gaussian Development Version, Revision H.37+,
 M. J. Frisch, G. W. Trucks, H. B. Schlegel, G. E. Scuseria, 
 M. A. Robb, J. R. Cheeseman, G. Scalmani, V. Barone, B. Mennucci, 
 G. A. Petersson, H. Nakatsuji, M. Caricato, X. Li, H. P. Hratchian, 
 A. F. Izmaylov, J. Bloino, B. G. Janesko, F. Lipparini, G. Zheng, 
 J. L. Sonnenberg, W. Liang, M. Hada, M. Ehara, K. Toyota, R. Fukuda, 
 J. Hasegawa, M. Ishida, T. Nakajima, Y. Honda, O. Kitao, H. Nakai, 
 T. Vreven, J. A. Montgomery, Jr., J. E. Peralta, F. Ogliaro, 
 M. Bearpark, J. J. Heyd, E. Brothers, K. N. Kudin, V. N. Staroverov, 
 T. Keith, R. Kobayashi, J. Normand, K. Raghavachari, A. Rendell, 
 J. C. Burant, S. S. Iyengar, J. Tomasi, M. Cossi, N. Rega, 
 J. M. Millam, M. Klene, J. E. Knox, J. B. Cross, V. Bakken, 
 C. Adamo, J. Jaramillo, R. Gomperts, R. E. Stratmann, O. Yazyev, 
 A. J. Austin, R. Cammi, C. Pomelli, J. W. Ochterski, R. L. Martin, 
 K. Morokuma, V. G. Zakrzewski, G. A. Voth, P. Salvador, 
 J. J. Dannenberg, S. Dapprich, P. V. Parandekar, N. J. Mayhall, 
 A. D. Daniels, O. Farkas, J. B. Foresman, J. V. Ortiz, 
 J. Cioslowski, and D. J. Fox, Gaussian, Inc., Wallingford CT, 2010.
 
 *******************************************
 Gaussian DV:  AM64L-GDVRevH.37+ 17-Apr-2014
                 20-Aug-2015 
 *******************************************
 %mem=200MB
 %chk=FHF.chk
 %nproc=1
 Will use up to    1 processors via shared memory.
 --------------------------------------
 #p b3lyp/6-31+g(d,p) iop(2/29=1) force
 --------------------------------------
 1/10=7,30=1,38=1/1,3;
 2/12=2,17=6,18=5,29=1,40=1/2;
 3/5=1,6=6,7=111,11=2,16=1,25=1,30=1,71=1,74=-5/1,2,3;
 4//1;
 5/5=2,38=5/2;
 6/7=2,8=2,9=2,10=2,28=1/1;
 7/29=1/1,2,3,16;
 1/10=7,30=1/3;
 99//99;
 Leave Link    1 at Thu Aug 20 16:12:44 2015, MaxMem=    26214400 cpu:               0.0 elap:               0.0
 (Enter /home/lijunj/Gauss/gdv-h37p/gdv/l101.exe)
 -----
 title
 -----
 Symbolic Z-matrix:
 Charge =  1 Multiplicity = 1
 O                     0.00012  -0.00096  -0.38657 
 H                    -0.85216  -0.50636  -0.15451 
 H                    -0.011     0.99055  -0.15698 
 H                     0.86472  -0.48658  -0.1574 
 O                     2.21523  -1.1632    0.10996 
 H                     2.47445  -1.63659   0.91221 
 H                     2.80572  -1.44497  -0.60258 
 
 ITRead=  0  0  0  0  0  0  0
 MicOpt= -1 -1 -1 -1 -1 -1 -1
 NAtoms=      7 NQM=        7 NQMF=       0 NMMI=      0 NMMIF=      0
                NMic=       0 NMicF=      0.
                    Isotopes and Nuclear Properties:
 (Nuclear quadrupole moments (NQMom) in fm**2, nuclear magnetic moments (NMagM)
  in nuclear magnetons)

  Atom         1           2           3           4           5           6           7
 IAtWgt=          16           1           1           1          16           1           1
 AtmWgt=  15.9949146   1.0078250   1.0078250   1.0078250  15.9949146   1.0078250   1.0078250
 NucSpn=           0           1           1           1           0           1           1
 AtZEff=   0.0000000   0.0000000   0.0000000   0.0000000   0.0000000   0.0000000   0.0000000
 NQMom=    0.0000000   0.0000000   0.0000000   0.0000000   0.0000000   0.0000000   0.0000000
 NMagM=    0.0000000   2.7928460   2.7928460   2.7928460   0.0000000   2.7928460   2.7928460
 AtZNuc=   8.0000000   1.0000000   1.0000000   1.0000000   8.0000000   1.0000000   1.0000000
 Leave Link  101 at Thu Aug 20 16:12:44 2015, MaxMem=    26214400 cpu:               0.1 elap:               0.1
 (Enter /home/lijunj/Gauss/gdv-h37p/gdv/l103.exe)

 GradGradGradGradGradGradGradGradGradGradGradGradGradGradGradGradGradGrad
 Berny optimization.
 Initialization pass.
 Trust Radius=3.00D-01 FncErr=1.00D-07 GrdErr=1.00D-07 EigMax=2.50D+02 EigMin=1.00D-04
 Number of steps in this run=      2 maximum allowed number of steps=      2.
 GradGradGradGradGradGradGradGradGradGradGradGradGradGradGradGradGradGrad

 Leave Link  103 at Thu Aug 20 16:12:44 2015, MaxMem=    26214400 cpu:               0.0 elap:               0.0
 (Enter /home/lijunj/Gauss/gdv-h37p/gdv/l202.exe)
                          Input orientation:                          
 ---------------------------------------------------------------------
 Center     Atomic      Atomic             Coordinates (Angstroms)
 Number     Number       Type             X           Y           Z
 ---------------------------------------------------------------------
      1          8           0        0.000116   -0.000961   -0.386565
      2          1           0       -0.852163   -0.506364   -0.154508
      3          1           0       -0.011003    0.990547   -0.156979
      4          1           0        0.864723   -0.486579   -0.157400
      5          8           0        2.215230   -1.163198    0.109962
      6          1           0        2.474453   -1.636585    0.912211
      7          1           0        2.805721   -1.444972   -0.602584
 ---------------------------------------------------------------------
                    Distance matrix (angstroms):
                    1          2          3          4          5
     1  O    0.000000
     2  H    1.017675   0.000000
     3  H    1.017802   1.717061   0.000000
     4  H    1.017785   1.717002   1.717206   0.000000
     5  O    2.550307   3.148059   3.109017   1.534003   0.000000
     6  H    3.237967   3.671738   3.771271   2.248958   0.966900
     7  H    3.162792   3.802877   3.750233   2.210018   0.967367
                    6          7
     6  H    0.000000
     7  H    1.562389   0.000000
 Stoichiometry    H5O2(1+)
 Framework group  C1[X(H5O2)]
 Deg. of freedom    15
 Full point group                 C1      NOp   1
 Largest Abelian subgroup         C1      NOp   1
 Largest concise Abelian subgroup C1      NOp   1
                         Standard orientation:                         
 ---------------------------------------------------------------------
 Center     Atomic      Atomic             Coordinates (Angstroms)
 Number     Number       Type             X           Y           Z
 ---------------------------------------------------------------------
      1          8           0        1.271667   -0.033362   -0.061199
      2          1           0        1.735731    0.852367   -0.250387
      3          1           0        1.710964   -0.604974    0.657271
      4          1           0        0.256152    0.014238   -0.012725
      5          8           0       -1.276921   -0.016587    0.030906
      6          1           0       -1.853885    0.613334    0.483904
      7          1           0       -1.806936   -0.475376   -0.635723
 ---------------------------------------------------------------------
 Rotational constants (GHZ):    172.6204435      7.6608341      7.6004834
 Leave Link  202 at Thu Aug 20 16:12:44 2015, MaxMem=    26214400 cpu:               0.0 elap:               0.0
 (Enter /home/lijunj/Gauss/gdv-h37p/gdv/l301.exe)
 Standard basis: 6-31+G(d,p) (6D, 7F)
 Ernie: Thresh=  0.10000D-02 Tol=  0.10000D-05 Strict=F.
 There are    63 symmetry adapted cartesian basis functions of A   symmetry.
 There are    63 symmetry adapted basis functions of A   symmetry.
    63 basis functions,    99 primitive gaussians,    63 cartesian basis functions
    10 alpha electrons       10 beta electrons
       nuclear repulsion energy        44.9277602652 Hartrees.
 IExCor=  402 DFT=T Ex+Corr=B3LYP ExCW=0 ScaHFX=  0.200000
 ScaDFX=  0.800000  0.720000  1.000000  0.810000 ScalE2=  1.000000  1.000000
 IRadAn=      0 IRanWt=     -1 IRanGd=            0 ICorTp=0 IEmpDi=  4
 NAtoms=    7 NActive=    7 NUniq=    7 SFac= 1.00D+00 NAtFMM=   60 NAOKFM=F Big=F
 Integral buffers will be    131072 words long.
 Raffenetti 2 integral format.
 Two-electron integral symmetry is turned on.
 Leave Link  301 at Thu Aug 20 16:12:45 2015, MaxMem=    26214400 cpu:               0.0 elap:               0.1
 (Enter /home/lijunj/Gauss/gdv-h37p/gdv/l302.exe)
 NPDir=0 NMtPBC=     1 NCelOv=     1 NCel=       1 NClECP=     1 NCelD=      1
         NCelK=      1 NCelE2=     1 NClLst=     1 CellRange=     0.0.
 One-electron integrals computed using PRISM.
 One-electron integral symmetry used in STVInt
 NBasis=    63 RedAO= T EigKep=  7.24D-03  NBF=    63
 NBsUse=    63 1.00D-06 EigRej= -1.00D+00 NBFU=    63
 Precomputing XC quadrature grid using
 IXCGrd= 4 IRadAn=           0 IRanWt=          -1 IRanGd=           0 AccXCQ= 0.00D+00.
 Generated NRdTot=       0 NPtTot=           0 NUsed=           0 NTot=          32
 NSgBfM=    63    63    63    63    63 MxSgAt=     7 MxSgA2=     7.
 Leave Link  302 at Thu Aug 20 16:12:45 2015, MaxMem=    26214400 cpu:               0.2 elap:               0.2
 (Enter /home/lijunj/Gauss/gdv-h37p/gdv/l303.exe)
 DipDrv:  MaxL=1.
 Leave Link  303 at Thu Aug 20 16:12:45 2015, MaxMem=    26214400 cpu:               0.0 elap:               0.1
 (Enter /home/lijunj/Gauss/gdv-h37p/gdv/l401.exe)
 ExpMin= 8.45D-02 ExpMax= 5.48D+03 ExpMxC= 8.25D+02 IAcc=2 IRadAn=         4 AccDes= 0.00D+00
 Harris functional with IExCor=  402 and IRadAn=       4 diagonalized for initial guess.
 HarFok:  IExCor=  402 AccDes= 0.00D+00 IRadAn=         4 IDoV= 1 UseB2=F ITyADJ=14
 ICtDFT=  3500011 ScaDFX=  1.000000  1.000000  1.000000  1.000000
 FoFCou: FMM=F IPFlag=           0 FMFlag=      100000 FMFlg1=           0
         NFxFlg=           0 DoJE=T BraDBF=F KetDBF=T FulRan=T
         wScrn=  0.000000 ICntrl=       500 IOpCl=  0 I1Cent=   200000004 NGrid=           0
         NMat0=    1 NMatS0=      1 NMatT0=    0 NMatD0=    1 NMtDS0=    0 NMtDT0=    0
 Petite list used in FoFCou.
 Harris En= -153.286022168696    
 JPrj=0 DoOrth=F DoCkMO=F.
 Leave Link  401 at Thu Aug 20 16:12:45 2015, MaxMem=    26214400 cpu:               0.4 elap:               0.4
 (Enter /home/lijunj/Gauss/gdv-h37p/gdv/l502.exe)
 Keep R1 ints in memory in canonical form, NReq=2914989.
 FoFCou: FMM=F IPFlag=           0 FMFlag=           0 FMFlg1=           0
         NFxFlg=           0 DoJE=F BraDBF=F KetDBF=F FulRan=T
         wScrn=  0.000000 ICntrl=       600 IOpCl=  0 I1Cent=           0 NGrid=           0
         NMat0=    1 NMatS0=   2016 NMatT0=    0 NMatD0=    1 NMtDS0=    0 NMtDT0=    0
 Symmetry not used in FoFCou.
 Two-electron integral symmetry not used.
 Closed shell SCF:
 Using DIIS extrapolation, IDIIS=  1040.
 NGot=    26214400 LenX=    24172376 LenY=    24167966
 Requested convergence on RMS density matrix=1.00D-08 within 128 cycles.
 Requested convergence on MAX density matrix=1.00D-06.
 Requested convergence on             energy=1.00D-06.
 No special actions if energy rises.
 Integral accuracy reduced to 1.0D-05 until final iterations.

 Cycle   1  Pass 0  IDiag  1:
 E= -153.127616511023    
 DIIS: error= 3.58D-02 at cycle   1 NSaved=   1.
 NSaved= 1 IEnMin= 1 EnMin= -153.127616511023     IErMin= 1 ErrMin= 3.58D-02
 ErrMax= 3.58D-02  0.00D+00 EMaxC= 1.00D-01 BMatC= 9.52D-02 BMatP= 9.52D-02
 IDIUse=3 WtCom= 6.42D-01 WtEn= 3.58D-01
 Coeff-Com:  0.100D+01
 Coeff-En:   0.100D+01
 Coeff:      0.100D+01
 Gap=     0.205 Goal=   None    Shift=    0.000
 GapD=    0.205 DampG=1.000 DampE=0.500 DampFc=0.5000 IDamp=-1.
 Damping current iteration by 5.00D-01
 RMSDP=6.76D-03 MaxDP=1.34D-01              OVMax= 1.59D-01

 Cycle   2  Pass 0  IDiag  1:
 E= -153.146670872205     Delta-E=       -0.019054361182 Rises=F Damp=T
 DIIS: error= 1.20D-02 at cycle   2 NSaved=   2.
 NSaved= 2 IEnMin= 2 EnMin= -153.146670872205     IErMin= 2 ErrMin= 1.20D-02
 ErrMax= 1.20D-02  0.00D+00 EMaxC= 1.00D-01 BMatC= 7.56D-03 BMatP= 9.52D-02
 IDIUse=3 WtCom= 8.80D-01 WtEn= 1.20D-01
 Coeff-Com:  0.192D+00 0.808D+00
 Coeff-En:   0.342D+00 0.658D+00
 Coeff:      0.210D+00 0.790D+00
 Gap=     0.320 Goal=   None    Shift=    0.000
 RMSDP=1.15D-03 MaxDP=1.44D-02 DE=-1.91D-02 OVMax= 1.07D-01

 Cycle   3  Pass 0  IDiag  1:
 E= -153.192717010861     Delta-E=       -0.046046138656 Rises=F Damp=F
 DIIS: error= 2.23D-03 at cycle   3 NSaved=   3.
 NSaved= 3 IEnMin= 3 EnMin= -153.192717010861     IErMin= 3 ErrMin= 2.23D-03
 ErrMax= 2.23D-03  0.00D+00 EMaxC= 1.00D-01 BMatC= 4.35D-04 BMatP= 7.56D-03
 IDIUse=3 WtCom= 9.78D-01 WtEn= 2.23D-02
 Coeff-Com:  0.341D-01 0.190D+00 0.776D+00
 Coeff-En:   0.000D+00 0.000D+00 0.100D+01
 Coeff:      0.333D-01 0.186D+00 0.781D+00
 Gap=     0.321 Goal=   None    Shift=    0.000
 RMSDP=3.29D-04 MaxDP=6.40D-03 DE=-4.60D-02 OVMax= 6.77D-03

 Cycle   4  Pass 0  IDiag  1:
 E= -153.192784729439     Delta-E=       -0.000067718578 Rises=F Damp=F
 DIIS: error= 2.26D-03 at cycle   4 NSaved=   4.
 NSaved= 4 IEnMin= 4 EnMin= -153.192784729439     IErMin= 3 ErrMin= 2.23D-03
 ErrMax= 2.26D-03  0.00D+00 EMaxC= 1.00D-01 BMatC= 3.50D-04 BMatP= 4.35D-04
 IDIUse=3 WtCom= 9.77D-01 WtEn= 2.26D-02
 Coeff-Com: -0.344D-02 0.221D-01 0.476D+00 0.505D+00
 Coeff-En:   0.000D+00 0.000D+00 0.446D+00 0.554D+00
 Coeff:     -0.336D-02 0.216D-01 0.476D+00 0.506D+00
 Gap=     0.325 Goal=   None    Shift=    0.000
 RMSDP=1.54D-04 MaxDP=3.66D-03 DE=-6.77D-05 OVMax= 3.84D-03

 Cycle   5  Pass 0  IDiag  1:
 E= -153.193025187750     Delta-E=       -0.000240458310 Rises=F Damp=F
 DIIS: error= 1.43D-04 at cycle   5 NSaved=   5.
 NSaved= 5 IEnMin= 5 EnMin= -153.193025187750     IErMin= 5 ErrMin= 1.43D-04
 ErrMax= 1.43D-04  0.00D+00 EMaxC= 1.00D-01 BMatC= 1.47D-06 BMatP= 3.50D-04
 IDIUse=3 WtCom= 9.99D-01 WtEn= 1.43D-03
 Coeff-Com: -0.128D-02-0.282D-03 0.104D+00 0.139D+00 0.758D+00
 Coeff-En:   0.000D+00 0.000D+00 0.000D+00 0.000D+00 0.100D+01
 Coeff:     -0.128D-02-0.281D-03 0.104D+00 0.139D+00 0.759D+00
 Gap=     0.325 Goal=   None    Shift=    0.000
 RMSDP=1.43D-05 MaxDP=1.74D-04 DE=-2.40D-04 OVMax= 2.92D-04

 Cycle   6  Pass 0  IDiag  1:
 E= -153.193026266052     Delta-E=       -0.000001078303 Rises=F Damp=F
 DIIS: error= 1.51D-05 at cycle   6 NSaved=   6.
 NSaved= 6 IEnMin= 6 EnMin= -153.193026266052     IErMin= 6 ErrMin= 1.51D-05
 ErrMax= 1.51D-05  0.00D+00 EMaxC= 1.00D-01 BMatC= 9.71D-09 BMatP= 1.47D-06
 IDIUse=1 WtCom= 1.00D+00 WtEn= 0.00D+00
 Coeff-Com:  0.172D-03-0.471D-03 0.999D-03 0.282D-02 0.441D-01 0.952D+00
 Coeff:      0.172D-03-0.471D-03 0.999D-03 0.282D-02 0.441D-01 0.952D+00
 Gap=     0.325 Goal=   None    Shift=    0.000
 RMSDP=1.28D-06 MaxDP=1.95D-05 DE=-1.08D-06 OVMax= 3.92D-05

 Initial convergence to 1.0D-05 achieved.  Increase integral accuracy.
 Cycle   7  Pass 1  IDiag  1:
 E= -153.193007571320     Delta-E=        0.000018694733 Rises=F Damp=F
 DIIS: error= 6.34D-06 at cycle   1 NSaved=   1.
 NSaved= 1 IEnMin= 1 EnMin= -153.193007571320     IErMin= 1 ErrMin= 6.34D-06
 ErrMax= 6.34D-06  0.00D+00 EMaxC= 1.00D-01 BMatC= 2.33D-09 BMatP= 2.33D-09
 IDIUse=1 WtCom= 1.00D+00 WtEn= 0.00D+00
 Coeff-Com:  0.100D+01
 Coeff:      0.100D+01
 Gap=     0.325 Goal=   None    Shift=    0.000
 RMSDP=1.28D-06 MaxDP=1.95D-05 DE= 1.87D-05 OVMax= 5.17D-05

 Cycle   8  Pass 1  IDiag  1:
 E= -153.193007576489     Delta-E=       -0.000000005169 Rises=F Damp=F
 DIIS: error= 2.31D-06 at cycle   2 NSaved=   2.
 NSaved= 2 IEnMin= 2 EnMin= -153.193007576489     IErMin= 2 ErrMin= 2.31D-06
 ErrMax= 2.31D-06  0.00D+00 EMaxC= 1.00D-01 BMatC= 4.53D-10 BMatP= 2.33D-09
 IDIUse=1 WtCom= 1.00D+00 WtEn= 0.00D+00
 Coeff-Com:  0.169D+00 0.831D+00
 Coeff:      0.169D+00 0.831D+00
 Gap=     0.325 Goal=   None    Shift=    0.000
 RMSDP=4.68D-07 MaxDP=9.45D-06 DE=-5.17D-09 OVMax= 1.14D-05

 Cycle   9  Pass 1  IDiag  1:
 E= -153.193007576475     Delta-E=        0.000000000014 Rises=F Damp=F
 DIIS: error= 2.88D-06 at cycle   3 NSaved=   3.
 NSaved= 3 IEnMin= 2 EnMin= -153.193007576489     IErMin= 2 ErrMin= 2.31D-06
 ErrMax= 2.88D-06  0.00D+00 EMaxC= 1.00D-01 BMatC= 5.35D-10 BMatP= 4.53D-10
 IDIUse=1 WtCom= 1.00D+00 WtEn= 0.00D+00
 Coeff-Com: -0.272D-01 0.532D+00 0.495D+00
 Coeff:     -0.272D-01 0.532D+00 0.495D+00
 Gap=     0.325 Goal=   None    Shift=    0.000
 RMSDP=2.12D-07 MaxDP=4.67D-06 DE= 1.39D-11 OVMax= 6.22D-06

 Cycle  10  Pass 1  IDiag  1:
 E= -153.193007576852     Delta-E=       -0.000000000377 Rises=F Damp=F
 DIIS: error= 1.71D-07 at cycle   4 NSaved=   4.
 NSaved= 4 IEnMin= 4 EnMin= -153.193007576852     IErMin= 4 ErrMin= 1.71D-07
 ErrMax= 1.71D-07  0.00D+00 EMaxC= 1.00D-01 BMatC= 1.77D-12 BMatP= 4.53D-10
 IDIUse=1 WtCom= 1.00D+00 WtEn= 0.00D+00
 Coeff-Com: -0.133D-01 0.126D+00 0.129D+00 0.758D+00
 Coeff:     -0.133D-01 0.126D+00 0.129D+00 0.758D+00
 Gap=     0.325 Goal=   None    Shift=    0.000
 RMSDP=2.27D-08 MaxDP=2.61D-07 DE=-3.77D-10 OVMax= 4.39D-07

 Cycle  11  Pass 1  IDiag  1:
 E= -153.193007576854     Delta-E=       -0.000000000002 Rises=F Damp=F
 DIIS: error= 5.11D-08 at cycle   5 NSaved=   5.
 NSaved= 5 IEnMin= 5 EnMin= -153.193007576854     IErMin= 5 ErrMin= 5.11D-08
 ErrMax= 5.11D-08  0.00D+00 EMaxC= 1.00D-01 BMatC= 1.74D-13 BMatP= 1.77D-12
 IDIUse=1 WtCom= 1.00D+00 WtEn= 0.00D+00
 Coeff-Com: -0.329D-02 0.243D-01 0.234D-01 0.261D+00 0.694D+00
 Coeff:     -0.329D-02 0.243D-01 0.234D-01 0.261D+00 0.694D+00
 Gap=     0.325 Goal=   None    Shift=    0.000
 RMSDP=5.24D-09 MaxDP=1.40D-07 DE=-1.82D-12 OVMax= 1.38D-07

 SCF Done:  E(RB3LYP) =  -153.193007577     A.U. after   11 cycles
            NFock= 11  Conv=0.52D-08     -V/T= 2.0102
 KE= 1.516423086582D+02 PE=-4.452473562488D+02 EE= 9.548427974857D+01
 Leave Link  502 at Thu Aug 20 16:12:48 2015, MaxMem=    26214400 cpu:               2.8 elap:               2.9
 (Enter /home/lijunj/Gauss/gdv-h37p/gdv/l601.exe)
 Copying SCF densities to generalized density rwf, IOpCl= 0 IROHF=0.

 **********************************************************************

            Population analysis using the SCF density.

 **********************************************************************

 Orbital symmetries:
       Occupied  (A) (A) (A) (A) (A) (A) (A) (A) (A) (A)
       Virtual   (A) (A) (A) (A) (A) (A) (A) (A) (A) (A) (A) (A)
                 (A) (A) (A) (A) (A) (A) (A) (A) (A) (A) (A) (A)
                 (A) (A) (A) (A) (A) (A) (A) (A) (A) (A) (A) (A)
                 (A) (A) (A) (A) (A) (A) (A) (A) (A) (A) (A) (A)
                 (A) (A) (A) (A) (A)
 The electronic state is 1-A.
 Alpha  occ. eigenvalues --  -19.51730 -19.39915  -1.36434  -1.24859  -0.86376
 Alpha  occ. eigenvalues --   -0.86293  -0.76733  -0.67081  -0.64153  -0.55244
 Alpha virt. eigenvalues --   -0.22720  -0.14985  -0.13660  -0.07978  -0.05405
 Alpha virt. eigenvalues --   -0.05231  -0.04518  -0.02132   0.02419   0.04330
 Alpha virt. eigenvalues --    0.05522   0.06136   0.10037   0.62169   0.65161
 Alpha virt. eigenvalues --    0.72441   0.75850   0.79372   0.80214   0.81152
 Alpha virt. eigenvalues --    0.82068   0.87893   0.90986   0.95945   1.13327
 Alpha virt. eigenvalues --    1.14011   1.17657   1.20540   1.27970   1.35868
 Alpha virt. eigenvalues --    1.44060   1.76712   1.79763   1.93897   2.00061
 Alpha virt. eigenvalues --    2.01210   2.17460   2.20933   2.26120   2.34415
 Alpha virt. eigenvalues --    2.37831   2.43550   2.44533   2.67185   2.68951
 Alpha virt. eigenvalues --    2.76765   2.98815   3.11333   3.11622   3.27519
 Alpha virt. eigenvalues --    3.41337   3.91870   3.95667
          Condensed to atoms (all electrons):
               1          2          3          4          5          6
     1  O    7.852781   0.283892   0.282962   0.210374  -0.061446   0.003322
     2  H    0.283892   0.259059  -0.012624  -0.008280   0.002460  -0.000078
     3  H    0.282962  -0.012624   0.258856  -0.007939   0.003448  -0.000059
     4  H    0.210374  -0.008280  -0.007939   0.194649   0.073274  -0.003642
     5  O   -0.061446   0.002460   0.003448   0.073274   8.162202   0.294004
     6  H    0.003322  -0.000078  -0.000059  -0.003642   0.294004   0.297004
     7  H    0.004356  -0.000053  -0.000077  -0.003389   0.292771  -0.014091
               7
     1  O    0.004356
     2  H   -0.000053
     3  H   -0.000077
     4  H   -0.003389
     5  O    0.292771
     6  H   -0.014091
     7  H    0.297082
 Mulliken charges:
               1
     1  O   -0.576240
     2  H    0.475623
     3  H    0.475434
     4  H    0.544953
     5  O   -0.766712
     6  H    0.423541
     7  H    0.423402
 Sum of Mulliken charges =   1.00000
 Mulliken charges with hydrogens summed into heavy atoms:
               1
     1  O    0.919770
     5  O    0.080230
 Electronic spatial extent (au):  <R**2>=            159.4615
 Charge=              1.0000 electrons
 Dipole moment (field-independent basis, Debye):
    X=              1.9678    Y=              0.9861    Z=              0.6280  Tot=              2.2889
 Quadrupole moment (field-independent basis, Debye-Ang):
   XX=              5.3632   YY=             -9.2311   ZZ=            -10.9645
   XY=              0.4899   XZ=              2.6369   YZ=             -0.0326
 Traceless Quadrupole moment (field-independent basis, Debye-Ang):
   XX=             10.3073   YY=             -4.2869   ZZ=             -6.0203
   XY=              0.4899   XZ=              2.6369   YZ=             -0.0326
 Octapole moment (field-independent basis, Debye-Ang**2):
  XXX=              2.1668  YYY=              1.7168  ZZZ=              0.5927  XYY=              3.3937
  XXY=              3.8274  XXZ=              2.1913  XZZ=              0.0938  YZZ=             -0.5266
  YYZ=              0.3126  XYZ=             -6.3382
 Hexadecapole moment (field-independent basis, Debye-Ang**3):
 XXXX=            -70.6463 YYYY=            -11.0721 ZZZZ=            -12.0397 XXXY=              1.2002
 XXXZ=              8.8257 YYYX=              1.5333 YYYZ=             -0.2826 ZZZX=              3.0922
 ZZZY=              0.0974 XXYY=            -13.6317 XXZZ=            -18.6321 YYZZ=             -3.3519
 XXYZ=              0.2572 YYXZ=              0.4698 ZZXY=             -0.7428
 N-N= 4.492776026517D+01 E-N=-4.452473522989D+02  KE= 1.516423086582D+02
 No NMR shielding tensors so no spin-rotation constants.
 Leave Link  601 at Thu Aug 20 16:12:49 2015, MaxMem=    26214400 cpu:               0.1 elap:               0.2
 (Enter /home/lijunj/Gauss/gdv-h37p/gdv/l701.exe)
 Compute integral first derivatives.
 ... and contract with generalized density number  0.
 Leave Link  701 at Thu Aug 20 16:12:49 2015, MaxMem=    26214400 cpu:               0.1 elap:               0.1
 (Enter /home/lijunj/Gauss/gdv-h37p/gdv/l702.exe)
 L702 exits ... SP integral derivatives will be done elsewhere.
 Leave Link  702 at Thu Aug 20 16:12:49 2015, MaxMem=    26214400 cpu:               0.0 elap:               0.0
 (Enter /home/lijunj/Gauss/gdv-h37p/gdv/l703.exe)
 Compute integral first derivatives, UseDBF=F ICtDFT=           0.
 Integral derivatives from FoFJK, PRISM(SPDF).
 Calling FoFJK, ICntrl=      2127 FMM=F ISym2X=0 I1Cent= 0 IOpClX= 0 NMat=1 NMatS=1 NMatT=0.
 FoFJK:  IHMeth= 1 ICntrl=    2127 DoSepK=F KAlg= 0 I1Cent=           0 FoldK=F
 IRaf=         0 NMat=       1 IRICut=       1 DoRegI=T DoRafI=F ISym2E= 0.
 FoFCou: FMM=F IPFlag=           0 FMFlag=      100000 FMFlg1=         800
         NFxFlg=           0 DoJE=F BraDBF=F KetDBF=F FulRan=T
         wScrn=  0.000000 ICntrl=      2127 IOpCl=  0 I1Cent=           0 NGrid=           0
         NMat0=    1 NMatS0=      1 NMatT0=    0 NMatD0=    1 NMtDS0=    0 NMtDT0=    0
 Symmetry not used in FoFCou.
 Leave Link  703 at Thu Aug 20 16:12:50 2015, MaxMem=    26214400 cpu:               1.0 elap:               1.0
 (Enter /home/lijunj/Gauss/gdv-h37p/gdv/l716.exe)
 Dipole        = 7.74184437D-01 3.87980141D-01 2.47063201D-01
 ***** Axes restored to original set *****
 -------------------------------------------------------------------
 Center     Atomic                   Forces (Hartrees/Bohr)
 Number     Number              X              Y              Z
 -------------------------------------------------------------------
      1        8          -0.039068149    0.021217243    0.008051467
      2        1           0.027936331    0.020530534   -0.006373582
      3        1          -0.002507407   -0.034422306   -0.005847404
      4        1           0.023076783   -0.012059502    0.006150331
      5        8          -0.010027860    0.004706063   -0.002255988
      6        1          -0.000051612   -0.000060726    0.001755396
      7        1           0.000641915    0.000088692   -0.001480221
 -------------------------------------------------------------------
 Cartesian Forces:  Max     0.039068149 RMS     0.015974005
 Z-matrix is all fixed cartesians, so copy forces.
 Force constants in Cartesian coordinates: 
                1             2             3             4             5 
      1  0.788071D+00
      2  0.437657D-04  0.788037D+00
      3 -0.110276D-02 -0.483633D-03  0.157612D+00
      4 -0.337286D+00 -0.136718D+00  0.794138D-01  0.333648D+00
      5 -0.136728D+00 -0.187826D+00  0.470690D-01  0.153379D+00  0.165962D+00
      6  0.105572D+00  0.625784D-01 -0.529342D-01 -0.826686D-01 -0.490042D-01
      7 -0.106763D+00  0.342073D-02  0.115168D-02  0.162144D-01 -0.338997D-01
      8  0.346639D-02 -0.418676D+00 -0.913395D-01  0.150256D-02 -0.346744D-02
      9  0.150311D-02 -0.121748D+00 -0.523838D-01 -0.570381D-02  0.133330D-01
     10 -0.344022D+00  0.133253D+00 -0.794627D-01 -0.125764D-01  0.172485D-01
     11  0.133218D+00 -0.181535D+00  0.447542D-01 -0.181636D-01  0.253310D-01
     12 -0.105973D+00  0.596531D-01 -0.522942D-01  0.895868D-02 -0.113977D-01
     13  0.000000D+00  0.000000D+00  0.000000D+00  0.000000D+00  0.000000D+00
     14  0.000000D+00  0.000000D+00  0.000000D+00  0.000000D+00  0.000000D+00
     15  0.000000D+00  0.000000D+00  0.000000D+00  0.000000D+00  0.000000D+00
     16  0.000000D+00  0.000000D+00  0.000000D+00  0.000000D+00  0.000000D+00
     17  0.000000D+00  0.000000D+00  0.000000D+00  0.000000D+00  0.000000D+00
     18  0.000000D+00  0.000000D+00  0.000000D+00  0.000000D+00  0.000000D+00
     19  0.000000D+00  0.000000D+00  0.000000D+00  0.000000D+00  0.000000D+00
     20  0.000000D+00  0.000000D+00  0.000000D+00  0.000000D+00  0.000000D+00
     21  0.000000D+00  0.000000D+00  0.000000D+00  0.000000D+00  0.000000D+00
                6             7             8             9            10 
      6  0.367651D-01
      7 -0.142803D-01  0.750284D-01
      8 -0.203335D-02 -0.389984D-02  0.424848D+00
      9  0.808978D-02 -0.116808D-02  0.950702D-01  0.362713D-01
     10 -0.862344D-02  0.155200D-01 -0.106911D-02  0.536878D-02  0.341078D+00
     11 -0.115408D-01  0.343789D-01 -0.270445D-02  0.133447D-01 -0.149433D+00
     12  0.807927D-02  0.142967D-01 -0.169735D-02  0.802269D-02  0.827174D-01
     13  0.000000D+00  0.000000D+00  0.000000D+00  0.000000D+00  0.000000D+00
     14  0.000000D+00  0.000000D+00  0.000000D+00  0.000000D+00  0.000000D+00
     15  0.000000D+00  0.000000D+00  0.000000D+00  0.000000D+00  0.000000D+00
     16  0.000000D+00  0.000000D+00  0.000000D+00  0.000000D+00  0.000000D+00
     17  0.000000D+00  0.000000D+00  0.000000D+00  0.000000D+00  0.000000D+00
     18  0.000000D+00  0.000000D+00  0.000000D+00  0.000000D+00  0.000000D+00
     19  0.000000D+00  0.000000D+00  0.000000D+00  0.000000D+00  0.000000D+00
     20  0.000000D+00  0.000000D+00  0.000000D+00  0.000000D+00  0.000000D+00
     21  0.000000D+00  0.000000D+00  0.000000D+00  0.000000D+00  0.000000D+00
               11            12            13            14            15 
     11  0.158908D+00
     12 -0.465581D-01  0.361922D-01
     13  0.000000D+00  0.000000D+00  0.309134D+00
     14  0.000000D+00  0.000000D+00 -0.228456D+00  0.230050D+00
     15  0.000000D+00  0.000000D+00 -0.114933D+00 -0.110264D+00  0.665169D+00
     16  0.000000D+00  0.000000D+00 -0.807395D-01  0.108154D+00 -0.124587D+00
     17  0.000000D+00  0.000000D+00  0.975788D-01 -0.153187D+00  0.222244D+00
     18  0.000000D+00  0.000000D+00 -0.908674D-01  0.193393D+00 -0.368757D+00
     19  0.000000D+00  0.000000D+00 -0.228394D+00  0.120303D+00  0.239520D+00
     20  0.000000D+00  0.000000D+00  0.130877D+00 -0.768630D-01 -0.111980D+00
     21  0.000000D+00  0.000000D+00  0.205800D+00 -0.831289D-01 -0.296413D+00
               16            17            18            19            20 
     16  0.641367D-01
     17 -0.870111D-01  0.139730D+00
     18  0.102468D+00 -0.208165D+00  0.384212D+00
     19  0.166028D-01 -0.105676D-01 -0.116004D-01  0.211792D+00
     20 -0.211424D-01  0.134571D-01  0.147723D-01 -0.109735D+00  0.634059D-01
     21  0.221195D-01 -0.140790D-01 -0.154549D-01 -0.227920D+00  0.972079D-01
               21 
     21  0.311868D+00
 Leave Link  716 at Thu Aug 20 16:12:50 2015, MaxMem=    26214400 cpu:               0.0 elap:               0.0
 (Enter /home/lijunj/Gauss/gdv-h37p/gdv/l103.exe)

 GradGradGradGradGradGradGradGradGradGradGradGradGradGradGradGradGradGrad
 Berny optimization.
 Search for a local minimum.
 Step number   1 out of a maximum of    2
 All quantities printed in internal units (Hartrees-Bohrs-Radians)
 Second derivative matrix not updated -- first step.
 ITU=  0
     Eigenvalues ---    0.00000   0.00000   0.00000   0.00000   0.00000
     Eigenvalues ---    0.00000   0.08688   0.15130   0.15994   0.16355
     Eigenvalues ---    0.50319   0.85764   0.95758   1.03472   1.10245
 Eigenvalue     1 is  -3.33D-16 should be greater than     0.000000 Eigenvector:
                          X3        Y4        Y7        X5        X7
   1                    0.45281  -0.35520   0.35160  -0.34465  -0.26983
                          X1        X6        Z4        Y6        Y1
   1                    0.26924  -0.22899   0.21417   0.19805  -0.18627
 Eigenvalue     2 is   2.22D-16 Eigenvector:
                          X7        Y6        Z5        Z7        Y5
   1                    0.65663   0.48534  -0.28481   0.26982  -0.25712
                          X5        X6        Z6        Z4        Y7
   1                   -0.18322  -0.14918   0.14231   0.12956   0.10033
 Eigenvalue     3 is   2.22D-16 Eigenvector:
                          Y4        X2        X4        X6        Y2
   1                    0.41443   0.34350   0.33527   0.33218  -0.31327
                          X5        X3        X7        Y5        Y7
   1                   -0.31036  -0.29092  -0.24443  -0.21659   0.18637
 Eigenvalue     4 is   4.44D-16 Eigenvector:
                          X6        Z4        Y7        Z3        X2
   1                    0.52922   0.49962   0.29534  -0.26236  -0.25420
                          X4        Z2        Y2        Y5        Z7
   1                   -0.24919  -0.24185   0.23779  -0.17810  -0.10121
 Eigenvalue     5 is   8.88D-16 Eigenvector:
                          Z4        X6        Y7        X3        Z3
   1                    0.65646  -0.42186  -0.33789  -0.21665  -0.21299
                          Z2        Y4        Y5        Y2        Z5
   1                   -0.19030   0.19003   0.15752  -0.12746  -0.12391
 Eigenvalue     6 is   5.21D-12 Eigenvector:
                          Z2        Z3        Y6        Y7        X7
   1                    0.47685  -0.45986  -0.45496   0.43429   0.22158
                          X6        Z6        Y4        X2        X4
   1                   -0.21498  -0.14342   0.13669   0.08375   0.08137
 Quadratic step=8.681D+01 exceeds max=3.000D-01 adjusted using Lamda=-3.158D-02.
 Angle between NR and scaled steps=  23.94 degrees.
 Angle between quadratic step and forces=  66.11 degrees.
 Linear search not attempted -- first point.
 B after Tr=    -0.010756    0.002551   -0.003572
         Rot=    0.999999   -0.000412   -0.000118    0.001398 Ang=  -0.17 deg.
 Variable       Old X    -DE/DX   Delta X   Delta X   Delta X     New X
                                 (Linear)    (Quad)   (Total)
    X1        0.00022  -0.03907   0.00000   0.07376   0.06273   0.06295
    Y1       -0.00182   0.02122   0.00000  -0.03589  -0.03295  -0.03477
    Z1       -0.73050   0.00805   0.00000   0.01329   0.00967  -0.72083
    X2       -1.61035   0.02794   0.00000   0.11696   0.10354  -1.50681
    Y2       -0.95689   0.02053   0.00000   0.02846   0.03542  -0.92146
    Z2       -0.29198  -0.00637   0.00000   0.00174  -0.00224  -0.29422
    X3       -0.02079  -0.00251   0.00000   0.03128   0.02539   0.00460
    Y3        1.87186  -0.03442   0.00000  -0.10781  -0.10506   1.76680
    Z3       -0.29665  -0.00585   0.00000   0.00825   0.00613  -0.29052
    X4        1.63409   0.02308   0.00000   0.11624   0.10271   1.73680
    Y4       -0.91950  -0.01206   0.00000  -0.04810  -0.05024  -0.96974
    Z4       -0.29744   0.00615   0.00000   0.05324   0.04846  -0.24898
    X5        4.18618  -0.01003   0.00000  -0.12731  -0.14412   4.04206
    Y5       -2.19813   0.00471   0.00000   0.02422   0.01529  -2.18284
    Z5        0.20780  -0.00226   0.00000  -0.03242  -0.03874   0.16906
    X6        4.67604  -0.00005   0.00000  -0.05797  -0.07675   4.59929
    Y6       -3.09270  -0.00006   0.00000   0.08766   0.07590  -3.01679
    Z6        1.72383   0.00176   0.00000  -0.00920  -0.01634   1.70749
    X7        5.30204   0.00064   0.00000  -0.05503  -0.07351   5.22854
    Y7       -2.73060   0.00009   0.00000   0.07280   0.06163  -2.66897
    Z7       -1.13872  -0.00148   0.00000   0.00007  -0.00693  -1.14565
         Item               Value     Threshold  Converged?
 Maximum Force            0.039068     0.000450     NO 
 RMS     Force            0.015974     0.000300     NO 
 Maximum Displacement     0.144120     0.001800     NO 
 RMS     Displacement     0.064701     0.001200     NO 
 Predicted change in Energy=-5.872591D-03
 GradGradGradGradGradGradGradGradGradGradGradGradGradGradGradGradGradGrad

 Leave Link  103 at Thu Aug 20 16:12:50 2015, MaxMem=    26214400 cpu:               0.0 elap:               0.0
 (Enter /home/lijunj/Gauss/gdv-h37p/gdv/l9999.exe)

 Test job not archived.
 1\1\GINC-BL-CHEM-IYENGAR11\Force\RB3LYP\6-31+G(d,p)\H5O2(1+)\LIJUNJ\20
 -Aug-2015\0\\#p b3lyp/6-31+g(d,p) iop(2/29=1) force\\title\\1,1\O,0.00
 0116,-0.000961,-0.386565\H,-0.852163,-0.506364,-0.154508\H,-0.011003,0
 .990547,-0.156979\H,0.864723,-0.486579,-0.1574\O,2.21523,-1.163198,0.1
 09962\H,2.474453,-1.636585,0.912211\H,2.805721,-1.444972,-0.602584\\Ve
 rsion=AM64L-GDVRevH.37+\State=1-A\HF=-153.1930076\RMSD=5.236e-09\RMSF=
 1.597e-02\Dipole=-0.8244662,0.2230383,0.2853765\Quadrupole=4.8059899,-
 0.3894479,-4.416542,-5.1556251,-0.2203071,-0.655083\PG=C01 [X(H5O2)]\\
 @


 THESE ARE THE TIMES THAT TRY MENS SOULS.
 THE SUMMER SOLDIER AND THE SUNSHINE PATRIOT WILL IN THIS CRISIS,
 SHRINK FROM THE SERVICE OF HIS COUNTRY.  BUT HE THAT STANDS NOW,
 DESERVES THE LOVE AND THANKS OF MAN AND WOMAN.
 TYRANNY, LIKE HELL, IS NOT EASILY CONQUERED,
 YET WE HAVE THIS CONSOLATION WITH US,
 THAT THE HARDER THE CONFLICT, THE MORE GLORIOUS THE TRIUMPH.
 WHAT WE OBTAIN TOO CHEAP, WE ESTEEM TOO LIGHTLY, 
 'TIS DEARNESS ONLY THAT GIVES EVERYTHING ITS VALUE.

                                              -- TOM PAINE
 Job cpu time:       0 days  0 hours  0 minutes  5.1 seconds.
 Elapsed time:       0 days  0 hours  0 minutes  5.3 seconds.
 File lengths (MBytes):  RWF=      5 Int=      0 D2E=      0 Chk=      2 Scr=      1
 Normal termination of Gaussian DV at Thu Aug 20 16:12:50 2015.
