 Entering Gaussian System, Link 0=gdv
 Initial command:
 /home/lijunj/Gauss/gdv-h37p/gdv/l1.exe "/scratch/lijunj/Gau-11387.inp" -scrdir="/scratch/lijunj/"
 Entering Link 1 = /home/lijunj/Gauss/gdv-h37p/gdv/l1.exe PID=     11388.
  
 Copyright (c) 1988,1990,1992,1993,1995,1998,2003,2009,2014,
            Gaussian, Inc.  All Rights Reserved.
  
 This is the private, development version of
 the Gaussian(R) DV system of programs. It is based on
 the Gaussian(R) 09 system (copyright 2009, Gaussian, Inc.),
 the Gaussian(R) 03 system (copyright 2003, Gaussian, Inc.),
 the Gaussian(R) 98 system (copyright 1998, Gaussian, Inc.),
 the Gaussian(R) 94 system (copyright 1995, Gaussian, Inc.),
 the Gaussian 92(TM) system (copyright 1992, Gaussian, Inc.),
 the Gaussian 90(TM) system (copyright 1990, Gaussian, Inc.),
 the Gaussian 88(TM) system (copyright 1988, Gaussian, Inc.),
 the Gaussian 86(TM) system (copyright 1986, Carnegie Mellon
 University), and the Gaussian 82(TM) system (copyright 1983,
 Carnegie Mellon University). Gaussian is a federally registered
 trademark of Gaussian, Inc.
  
 This software contains proprietary and confidential information,
 including trade secrets, belonging to Gaussian, Inc.
  
 This software is provided under written license and may be
 used, copied, transmitted, or stored only in accord with that
 written license.
  
 The following legend is applicable only to US Government
 contracts under FAR:
  
                    RESTRICTED RIGHTS LEGEND
  
 Use, reproduction and disclosure by the US Government is
 subject to restrictions as set forth in subparagraphs (a)
 and (c) of the Commercial Computer Software - Restricted
 Rights clause in FAR 52.227-19.
  
 Gaussian, Inc.
 340 Quinnipiac St., Bldg. 40, Wallingford CT 06492
  
  
 ---------------------------------------------------------------
 Warning -- This program may not be used in any manner that
 competes with the business of Gaussian, Inc. or will provide
 assistance to any competitor of Gaussian, Inc.  The licensee
 of this program is prohibited from giving any competitor of
 Gaussian, Inc. access to this program.  By using this program,
 the user acknowledges that Gaussian, Inc. is engaged in the
 business of creating and licensing software in the field of
 computational chemistry and represents and warrants to the
 licensee that it is not a competitor of Gaussian, Inc. and that
 it will not use this program in any manner prohibited above.
 ---------------------------------------------------------------
  

 Cite this work as:
 Gaussian Development Version, Revision H.37+,
 M. J. Frisch, G. W. Trucks, H. B. Schlegel, G. E. Scuseria, 
 M. A. Robb, J. R. Cheeseman, G. Scalmani, V. Barone, B. Mennucci, 
 G. A. Petersson, H. Nakatsuji, M. Caricato, X. Li, H. P. Hratchian, 
 A. F. Izmaylov, J. Bloino, B. G. Janesko, F. Lipparini, G. Zheng, 
 J. L. Sonnenberg, W. Liang, M. Hada, M. Ehara, K. Toyota, R. Fukuda, 
 J. Hasegawa, M. Ishida, T. Nakajima, Y. Honda, O. Kitao, H. Nakai, 
 T. Vreven, J. A. Montgomery, Jr., J. E. Peralta, F. Ogliaro, 
 M. Bearpark, J. J. Heyd, E. Brothers, K. N. Kudin, V. N. Staroverov, 
 T. Keith, R. Kobayashi, J. Normand, K. Raghavachari, A. Rendell, 
 J. C. Burant, S. S. Iyengar, J. Tomasi, M. Cossi, N. Rega, 
 J. M. Millam, M. Klene, J. E. Knox, J. B. Cross, V. Bakken, 
 C. Adamo, J. Jaramillo, R. Gomperts, R. E. Stratmann, O. Yazyev, 
 A. J. Austin, R. Cammi, C. Pomelli, J. W. Ochterski, R. L. Martin, 
 K. Morokuma, V. G. Zakrzewski, G. A. Voth, P. Salvador, 
 J. J. Dannenberg, S. Dapprich, P. V. Parandekar, N. J. Mayhall, 
 A. D. Daniels, O. Farkas, J. B. Foresman, J. V. Ortiz, 
 J. Cioslowski, and D. J. Fox, Gaussian, Inc., Wallingford CT, 2010.
 
 *******************************************
 Gaussian DV:  AM64L-GDVRevH.37+ 17-Apr-2014
                 20-Aug-2015 
 *******************************************
 %mem=200MB
 %chk=FHF.chk
 %nproc=1
 Will use up to    1 processors via shared memory.
 ------------------------
 #p pm6 iop(2/29=1) force
 ------------------------
 1/10=7,30=1,38=1/1,3;
 2/12=2,17=6,18=5,29=1,40=1/2;
 3/5=2,16=1,25=1,41=3900000,71=1/1,2,3;
 4/35=1/1;
 5/5=2,35=1,38=5/2;
 6/7=2,8=2,9=2,10=2,28=1/1;
 7/29=1/1,2,3,16;
 1/10=7,30=1/3;
 99//99;
 Leave Link    1 at Thu Aug 20 16:12:56 2015, MaxMem=    26214400 cpu:               0.0 elap:               0.1
 (Enter /home/lijunj/Gauss/gdv-h37p/gdv/l101.exe)
 -----
 title
 -----
 Symbolic Z-matrix:
 Charge =  1 Multiplicity = 1
 O                     0.00012  -0.00096  -0.38657 
 H                    -0.85216  -0.50636  -0.15451 
 H                    -0.011     0.99055  -0.15698 
 H                     0.86472  -0.48658  -0.1574 
 O                    -2.11656  -1.33418   0.11002 
 H                    -2.65899  -1.32144   0.91029 
 H                    -2.65264  -1.70649  -0.60398 
 
 ITRead=  0  0  0  0  0  0  0
 MicOpt= -1 -1 -1 -1 -1 -1 -1
 NAtoms=      7 NQM=        7 NQMF=       0 NMMI=      0 NMMIF=      0
                NMic=       0 NMicF=      0.
                    Isotopes and Nuclear Properties:
 (Nuclear quadrupole moments (NQMom) in fm**2, nuclear magnetic moments (NMagM)
  in nuclear magnetons)

  Atom         1           2           3           4           5           6           7
 IAtWgt=          16           1           1           1          16           1           1
 AtmWgt=  15.9949146   1.0078250   1.0078250   1.0078250  15.9949146   1.0078250   1.0078250
 NucSpn=           0           1           1           1           0           1           1
 AtZEff=   0.0000000   0.0000000   0.0000000   0.0000000   0.0000000   0.0000000   0.0000000
 NQMom=    0.0000000   0.0000000   0.0000000   0.0000000   0.0000000   0.0000000   0.0000000
 NMagM=    0.0000000   2.7928460   2.7928460   2.7928460   0.0000000   2.7928460   2.7928460
 AtZNuc=   8.0000000   1.0000000   1.0000000   1.0000000   8.0000000   1.0000000   1.0000000
 Leave Link  101 at Thu Aug 20 16:12:56 2015, MaxMem=    26214400 cpu:               0.1 elap:               0.1
 (Enter /home/lijunj/Gauss/gdv-h37p/gdv/l103.exe)

 GradGradGradGradGradGradGradGradGradGradGradGradGradGradGradGradGradGrad
 Berny optimization.
 Initialization pass.
 Trust Radius=3.00D-01 FncErr=1.00D-07 GrdErr=1.00D-07 EigMax=2.50D+02 EigMin=1.00D-04
 Number of steps in this run=      2 maximum allowed number of steps=      2.
 GradGradGradGradGradGradGradGradGradGradGradGradGradGradGradGradGradGrad

 Leave Link  103 at Thu Aug 20 16:12:56 2015, MaxMem=    26214400 cpu:               0.0 elap:               0.0
 (Enter /home/lijunj/Gauss/gdv-h37p/gdv/l202.exe)
                          Input orientation:                          
 ---------------------------------------------------------------------
 Center     Atomic      Atomic             Coordinates (Angstroms)
 Number     Number       Type             X           Y           Z
 ---------------------------------------------------------------------
      1          8           0        0.000116   -0.000961   -0.386565
      2          1           0       -0.852163   -0.506364   -0.154508
      3          1           0       -0.011003    0.990547   -0.156979
      4          1           0        0.864723   -0.486579   -0.157400
      5          8           0       -2.116563   -1.334184    0.110015
      6          1           0       -2.658992   -1.321437    0.910294
      7          1           0       -2.652639   -1.706489   -0.603982
 ---------------------------------------------------------------------
                    Distance matrix (angstroms):
                    1          2          3          4          5
     1  O    0.000000
     2  H    1.017675   0.000000
     3  H    1.017802   1.717061   0.000000
     4  H    1.017785   1.717002   1.717206   0.000000
     5  O    2.550374   1.534264   3.147863   3.110950   0.000000
     6  H    3.239808   2.250062   3.673716   3.775384   0.966870
     7  H    3.161203   2.209987   3.801586   3.749593   0.967357
                    6          7
     6  H    0.000000
     7  H    1.562478   0.000000
 Stoichiometry    H5O2(1+)
 Framework group  C1[X(H5O2)]
 Deg. of freedom    15
 Full point group                 C1      NOp   1
 Largest Abelian subgroup         C1      NOp   1
 Largest concise Abelian subgroup C1      NOp   1
                         Standard orientation:                         
 ---------------------------------------------------------------------
 Center     Atomic      Atomic             Coordinates (Angstroms)
 Number     Number       Type             X           Y           Z
 ---------------------------------------------------------------------
      1          8           0        1.271615   -0.033258   -0.061066
      2          1           0        0.256387    0.014522   -0.009189
      3          1           0        1.735356    0.852523   -0.251482
      4          1           0        1.713022   -0.605296    0.655746
      5          8           0       -1.277046   -0.016264    0.030810
      6          1           0       -1.856326    0.612569    0.482298
      7          1           0       -1.804994   -0.478136   -0.635318
 ---------------------------------------------------------------------
 Rotational constants (GHZ):    172.7235812      7.6600186      7.5989882
 Leave Link  202 at Thu Aug 20 16:12:56 2015, MaxMem=    26214400 cpu:               0.0 elap:               0.0
 (Enter /home/lijunj/Gauss/gdv-h37p/gdv/l301.exe)
 Standard basis: VSTO-6G (5D, 7F)
 Ernie: Thresh=  0.10000D-02 Tol=  0.10000D-05 Strict=F.
  NNHCO=     0 NNPyr=     0 NCTC=     0               EPep=         0.000000000
    EC=        24.693327490  ECS=         1.207987633   EG=         0.003404872
   EHC=         0.000021590  EAt=       -23.170052728  AtH=         0.604975726
 EPDDG=         0.000000000  ECC=        25.904741586 EAtT=        23.775028454
 There are    13 symmetry adapted cartesian basis functions of A   symmetry.
 There are    13 symmetry adapted basis functions of A   symmetry.
    13 basis functions,    78 primitive gaussians,    13 cartesian basis functions
     8 alpha electrons        8 beta electrons
       nuclear repulsion energy        49.6797700401 Hartrees.
 IExCor=    0 DFT=F Ex=HF Corr=None ExCW=0 ScaHFX=  1.000000
 ScaDFX=  1.000000  1.000000  1.000000  1.000000 ScalE2=  1.000000  1.000000
 IRadAn=      0 IRanWt=     -1 IRanGd=            0 ICorTp=0 IEmpDi=  4
 Integral buffers will be    131072 words long.
 Regular integral format.
 Two-electron integral symmetry is turned off.
 Leave Link  301 at Thu Aug 20 16:12:56 2015, MaxMem=    26214400 cpu:               0.0 elap:               0.0
 (Enter /home/lijunj/Gauss/gdv-h37p/gdv/l302.exe)
 Do NDO integrals.
 NPDir=0 NMtPBC=     1 NCelOv=     1 NCel=       1 NClECP=     1 NCelD=      1
         NCelK=      1 NCelE2=     1 NClLst=     1 CellRange=     0.0.
 One-electron integrals computed using PRISM.
 NBasis=    13 RedAO= F EigKep=  0.00D+00  NBF=    13
 NBsUse=    13 1.00D-04 EigRej=  0.00D+00 NBFU=    13
 Leave Link  302 at Thu Aug 20 16:12:56 2015, MaxMem=    26214400 cpu:               0.0 elap:               0.0
 (Enter /home/lijunj/Gauss/gdv-h37p/gdv/l303.exe)
 DipDrv:  MaxL=1.
 Leave Link  303 at Thu Aug 20 16:12:56 2015, MaxMem=    26214400 cpu:               0.0 elap:               0.0
 (Enter /home/lijunj/Gauss/gdv-h37p/gdv/l401.exe)
 Simple Huckel Guess.
 JPrj=0 DoOrth=F DoCkMO=F.
 Leave Link  401 at Thu Aug 20 16:12:56 2015, MaxMem=    26214400 cpu:               0.1 elap:               0.1
 (Enter /home/lijunj/Gauss/gdv-h37p/gdv/l502.exe)
 Keep J ints in memory in canonical form, NReq=859296.
 FoFCou: FMM=F IPFlag=           0 FMFlag=           0 FMFlg1=           0
         NFxFlg=           0 DoJE=F BraDBF=F KetDBF=F FulRan=T
         wScrn=  0.000000 ICntrl=       600 IOpCl=  2 I1Cent=           0 NGrid=           0
         NMat0=    1 NMatS0=     25 NMatT0=    0 NMatD0=    1 NMtDS0=    0 NMtDT0=    0
 Symmetry not used in FoFCou.
 Two-electron integral symmetry not used.
 Closed shell SCF:
 Using DIIS extrapolation, IDIIS=  1040.
 Overlap will be assumed to be unity.
 NGot=    26214400 LenX=    26153925 LenY=    26153043
 Requested convergence on RMS density matrix=1.00D-08 within 128 cycles.
 Requested convergence on MAX density matrix=1.00D-06.
 Requested convergence on             energy=1.00D-06.
 No special actions if energy rises.

 Cycle   1  Pass 1  IDiag  1:
 E= 0.292421045132279    
 DIIS: error= 5.56D-02 at cycle   1 NSaved=   1.
 NSaved= 1 IEnMin= 1 EnMin= 0.292421045132279     IErMin= 1 ErrMin= 5.56D-02
 ErrMax= 5.56D-02  0.00D+00 EMaxC= 1.00D-01 BMatC= 7.35D-02 BMatP= 7.35D-02
 IDIUse=3 WtCom= 4.44D-01 WtEn= 5.56D-01
 Coeff-Com:  0.100D+01
 Coeff-En:   0.100D+01
 Coeff:      0.100D+01
 GapD=    2.000 DampG=2.000 DampE=0.500 DampFc=1.0000 IDamp=-1.
 RMSDP=2.72D-02 MaxDP=1.54D-01              OVMax= 0.00D+00

 Cycle   2  Pass 1  IDiag  1:
 E= 0.126218710034848     Delta-E=       -0.166202335097 Rises=F Damp=F
 DIIS: error= 1.46D-02 at cycle   2 NSaved=   2.
 NSaved= 2 IEnMin= 2 EnMin= 0.126218710034848     IErMin= 2 ErrMin= 1.46D-02
 ErrMax= 1.46D-02  0.00D+00 EMaxC= 1.00D-01 BMatC= 4.74D-03 BMatP= 7.35D-02
 IDIUse=3 WtCom= 8.54D-01 WtEn= 1.46D-01
 Coeff-Com: -0.275D+00 0.128D+01
 Coeff-En:   0.000D+00 0.100D+01
 Coeff:     -0.235D+00 0.124D+01
 RMSDP=1.00D-02 MaxDP=4.40D-02 DE=-1.66D-01 OVMax= 0.00D+00

 Cycle   3  Pass 1  IDiag  3:
 E= 0.111033272510355     Delta-E=       -0.015185437524 Rises=F Damp=F
 DIIS: error= 3.61D-03 at cycle   3 NSaved=   3.
 NSaved= 3 IEnMin= 3 EnMin= 0.111033272510355     IErMin= 3 ErrMin= 3.61D-03
 ErrMax= 3.61D-03  0.00D+00 EMaxC= 1.00D-01 BMatC= 3.79D-04 BMatP= 4.74D-03
 IDIUse=3 WtCom= 9.64D-01 WtEn= 3.61D-02
 Coeff-Com:  0.208D+00-0.115D+01 0.195D+01
 Coeff-En:   0.000D+00 0.000D+00 0.100D+01
 Coeff:      0.201D+00-0.111D+01 0.191D+01
 Gap=     0.462 Goal=   None    Shift=    0.000
 RMSDP=5.84D-03 MaxDP=2.26D-02 DE=-1.52D-02 OVMax= 2.72D-02

 Cycle   4  Pass 1  IDiag  3:
 E= 0.108817884293963     Delta-E=       -0.002215388216 Rises=F Damp=F
 DIIS: error= 5.15D-04 at cycle   4 NSaved=   4.
 NSaved= 4 IEnMin= 4 EnMin= 0.108817884293963     IErMin= 4 ErrMin= 5.15D-04
 ErrMax= 5.15D-04  0.00D+00 EMaxC= 1.00D-01 BMatC= 4.89D-06 BMatP= 3.79D-04
 IDIUse=3 WtCom= 9.95D-01 WtEn= 5.15D-03
 Coeff-Com: -0.337D-01 0.206D+00-0.458D+00 0.129D+01
 Coeff-En:   0.000D+00 0.000D+00 0.000D+00 0.100D+01
 Coeff:     -0.335D-01 0.205D+00-0.455D+00 0.128D+01
 Gap=     0.462 Goal=   None    Shift=    0.000
 RMSDP=6.74D-04 MaxDP=2.03D-03 DE=-2.22D-03 OVMax= 3.38D-03

 Cycle   5  Pass 1  IDiag  3:
 E= 0.108789998475864     Delta-E=       -0.000027885818 Rises=F Damp=F
 DIIS: error= 7.31D-05 at cycle   5 NSaved=   5.
 NSaved= 5 IEnMin= 5 EnMin= 0.108789998475864     IErMin= 5 ErrMin= 7.31D-05
 ErrMax= 7.31D-05  0.00D+00 EMaxC= 1.00D-01 BMatC= 2.48D-07 BMatP= 4.89D-06
 IDIUse=1 WtCom= 1.00D+00 WtEn= 0.00D+00
 Coeff-Com:  0.753D-02-0.545D-01 0.152D+00-0.605D+00 0.150D+01
 Coeff:      0.753D-02-0.545D-01 0.152D+00-0.605D+00 0.150D+01
 Gap=     0.462 Goal=   None    Shift=    0.000
 RMSDP=1.21D-04 MaxDP=3.41D-04 DE=-2.79D-05 OVMax= 5.86D-04

 Cycle   6  Pass 1  IDiag  3:
 E= 0.108788740750299     Delta-E=       -0.000001257726 Rises=F Damp=F
 DIIS: error= 2.83D-05 at cycle   6 NSaved=   6.
 NSaved= 6 IEnMin= 6 EnMin= 0.108788740750299     IErMin= 6 ErrMin= 2.83D-05
 ErrMax= 2.83D-05  0.00D+00 EMaxC= 1.00D-01 BMatC= 1.51D-08 BMatP= 2.48D-07
 IDIUse=1 WtCom= 1.00D+00 WtEn= 0.00D+00
 Coeff-Com: -0.178D-02 0.166D-01-0.583D-01 0.275D+00-0.875D+00 0.164D+01
 Coeff:     -0.178D-02 0.166D-01-0.583D-01 0.275D+00-0.875D+00 0.164D+01
 Gap=     0.462 Goal=   None    Shift=    0.000
 RMSDP=4.10D-05 MaxDP=1.44D-04 DE=-1.26D-06 OVMax= 3.08D-04

 Cycle   7  Pass 1  IDiag  3:
 E= 0.108788645848073     Delta-E=       -0.000000094902 Rises=F Damp=F
 DIIS: error= 3.32D-06 at cycle   7 NSaved=   7.
 NSaved= 7 IEnMin= 7 EnMin= 0.108788645848073     IErMin= 7 ErrMin= 3.32D-06
 ErrMax= 3.32D-06  0.00D+00 EMaxC= 1.00D-01 BMatC= 4.05D-10 BMatP= 1.51D-08
 IDIUse=1 WtCom= 1.00D+00 WtEn= 0.00D+00
 Coeff-Com:  0.612D-03-0.659D-02 0.250D-01-0.121D+00 0.392D+00-0.807D+00
 Coeff-Com:  0.152D+01
 Coeff:      0.612D-03-0.659D-02 0.250D-01-0.121D+00 0.392D+00-0.807D+00
 Coeff:      0.152D+01
 Gap=     0.462 Goal=   None    Shift=    0.000
 RMSDP=5.30D-06 MaxDP=1.41D-05 DE=-9.49D-08 OVMax= 2.97D-05

 Cycle   8  Pass 1  IDiag  3:
 E= 0.108788643833904     Delta-E=       -0.000000002014 Rises=F Damp=F
 DIIS: error= 5.64D-07 at cycle   8 NSaved=   8.
 NSaved= 8 IEnMin= 8 EnMin= 0.108788643833904     IErMin= 8 ErrMin= 5.64D-07
 ErrMax= 5.64D-07  0.00D+00 EMaxC= 1.00D-01 BMatC= 1.11D-11 BMatP= 4.05D-10
 IDIUse=1 WtCom= 1.00D+00 WtEn= 0.00D+00
 Coeff-Com: -0.956D-04 0.121D-02-0.481D-02 0.236D-01-0.760D-01 0.156D+00
 Coeff-Com: -0.378D+00 0.128D+01
 Coeff:     -0.956D-04 0.121D-02-0.481D-02 0.236D-01-0.760D-01 0.156D+00
 Coeff:     -0.378D+00 0.128D+01
 Gap=     0.462 Goal=   None    Shift=    0.000
 RMSDP=8.54D-07 MaxDP=2.84D-06 DE=-2.01D-09 OVMax= 4.24D-06

 Cycle   9  Pass 1  IDiag  3:
 E= 0.108788643777899     Delta-E=       -0.000000000056 Rises=F Damp=F
 DIIS: error= 1.46D-07 at cycle   9 NSaved=   9.
 NSaved= 9 IEnMin= 9 EnMin= 0.108788643777899     IErMin= 9 ErrMin= 1.46D-07
 ErrMax= 1.46D-07  0.00D+00 EMaxC= 1.00D-01 BMatC= 5.40D-13 BMatP= 1.11D-11
 IDIUse=1 WtCom= 1.00D+00 WtEn= 0.00D+00
 Coeff-Com:  0.163D-04-0.194D-03 0.701D-03-0.315D-02 0.953D-02-0.169D-01
 Coeff-Com:  0.537D-01-0.391D+00 0.135D+01
 Coeff:      0.163D-04-0.194D-03 0.701D-03-0.315D-02 0.953D-02-0.169D-01
 Coeff:      0.537D-01-0.391D+00 0.135D+01
 Gap=     0.462 Goal=   None    Shift=    0.000
 RMSDP=2.19D-07 MaxDP=9.00D-07 DE=-5.60D-11 OVMax= 1.42D-06

 Cycle  10  Pass 1  IDiag  3:
 E= 0.108788643774780     Delta-E=       -0.000000000003 Rises=F Damp=F
 DIIS: error= 2.12D-08 at cycle  10 NSaved=  10.
 NSaved=10 IEnMin=10 EnMin= 0.108788643774780     IErMin=10 ErrMin= 2.12D-08
 ErrMax= 2.12D-08  0.00D+00 EMaxC= 1.00D-01 BMatC= 1.92D-14 BMatP= 5.40D-13
 IDIUse=1 WtCom= 1.00D+00 WtEn= 0.00D+00
 Coeff-Com: -0.190D-05 0.161D-04-0.294D-04 0.666D-05 0.217D-03-0.178D-02
 Coeff-Com: -0.587D-03 0.767D-01-0.463D+00 0.139D+01
 Coeff:     -0.190D-05 0.161D-04-0.294D-04 0.666D-05 0.217D-03-0.178D-02
 Coeff:     -0.587D-03 0.767D-01-0.463D+00 0.139D+01
 Gap=     0.462 Goal=   None    Shift=    0.000
 RMSDP=4.40D-08 MaxDP=1.34D-07 DE=-3.12D-12 OVMax= 2.50D-07

 Cycle  11  Pass 1  IDiag  3:
 E= 0.108788643774609     Delta-E=        0.000000000000 Rises=F Damp=F
 DIIS: error= 2.48D-09 at cycle  11 NSaved=  11.
 NSaved=11 IEnMin=11 EnMin= 0.108788643774609     IErMin=11 ErrMin= 2.48D-09
 ErrMax= 2.48D-09  0.00D+00 EMaxC= 1.00D-01 BMatC= 2.46D-16 BMatP= 1.92D-14
 IDIUse=1 WtCom= 1.00D+00 WtEn= 0.00D+00
 Coeff-Com:  0.189D-07 0.683D-07-0.698D-05 0.666D-04-0.262D-03 0.922D-03
 Coeff-Com: -0.691D-03-0.181D-01 0.121D+00-0.423D+00 0.132D+01
 Coeff:      0.189D-07 0.683D-07-0.698D-05 0.666D-04-0.262D-03 0.922D-03
 Coeff:     -0.691D-03-0.181D-01 0.121D+00-0.423D+00 0.132D+01
 Gap=     0.462 Goal=   None    Shift=    0.000
 RMSDP=4.21D-09 MaxDP=1.23D-08 DE=-1.71D-13 OVMax= 2.11D-08

 Cycle  12  Pass 2  IDiag  1:
 SCF Done:  E(RPM6) =  0.108788643775     A.U. after   12 cycles
            NFock= 11  Conv=0.42D-08     -V/T= 1.0027
 KE=-4.008603718662D+01 PE=-4.354976922078D+01 EE= 3.406482501107D+01
 Leave Link  502 at Thu Aug 20 16:12:56 2015, MaxMem=    26214400 cpu:               0.0 elap:               0.1
 (Enter /home/lijunj/Gauss/gdv-h37p/gdv/l601.exe)
 Copying SCF densities to generalized density rwf, IOpCl= 0 IROHF=0.

 **********************************************************************

            Population analysis using the SCF density.

 **********************************************************************

 Orbital symmetries:
       Occupied  (A) (A) (A) (A) (A) (A) (A) (A)
       Virtual   (A) (A) (A) (A) (A)
 The electronic state is 1-A.
 Alpha  occ. eigenvalues --   -1.41561  -1.30126  -0.98972  -0.98376  -0.89761
 Alpha  occ. eigenvalues --   -0.76939  -0.74005  -0.65568
 Alpha virt. eigenvalues --   -0.19367  -0.07652  -0.06858  -0.01122   0.02349
          Condensed to atoms (all electrons):
               1          2          3          4          5          6
     1  O    6.362035   0.000000   0.000000   0.000000   0.000000   0.000000
     2  H    0.000000   0.578564   0.000000   0.000000   0.000000   0.000000
     3  H    0.000000   0.000000   0.578933   0.000000   0.000000   0.000000
     4  H    0.000000   0.000000   0.000000   0.576659   0.000000   0.000000
     5  O    0.000000   0.000000   0.000000   0.000000   6.645909   0.000000
     6  H    0.000000   0.000000   0.000000   0.000000   0.000000   0.629695
     7  H    0.000000   0.000000   0.000000   0.000000   0.000000   0.000000
               7
     1  O    0.000000
     2  H    0.000000
     3  H    0.000000
     4  H    0.000000
     5  O    0.000000
     6  H    0.000000
     7  H    0.628206
 Mulliken charges:
               1
     1  O   -0.362035
     2  H    0.421436
     3  H    0.421067
     4  H    0.423341
     5  O   -0.645909
     6  H    0.370305
     7  H    0.371794
 Sum of Mulliken charges =   1.00000
 Mulliken charges with hydrogens summed into heavy atoms:
               1
     1  O    0.903810
     5  O    0.096190
 Charge=              1.0000 electrons
 Dipole moment (field-independent basis, Debye):
    X=              2.4291    Y=              1.0643    Z=              0.6734  Tot=              2.7362
 N-N= 4.967977004011D+01 E-N=-4.354976923769D+01  KE=-4.008603718662D+01
 Leave Link  601 at Thu Aug 20 16:12:56 2015, MaxMem=    26214400 cpu:               0.0 elap:               0.0
 (Enter /home/lijunj/Gauss/gdv-h37p/gdv/l701.exe)
 Compute integral first derivatives.
 ... and contract with generalized density number  0.
 Leave Link  701 at Thu Aug 20 16:12:56 2015, MaxMem=    26214400 cpu:               0.1 elap:               0.1
 (Enter /home/lijunj/Gauss/gdv-h37p/gdv/l702.exe)
 L702 exits ... SP integral derivatives will be done elsewhere.
 Leave Link  702 at Thu Aug 20 16:12:56 2015, MaxMem=    26214400 cpu:               0.0 elap:               0.0
 (Enter /home/lijunj/Gauss/gdv-h37p/gdv/l703.exe)
 Compute integral first derivatives, UseDBF=F ICtDFT=           0.
 Integral derivatives from FoFJK, PRISM(SPDF).
 Calling FoFJK, ICntrl=      2127 FMM=F ISym2X=0 I1Cent= 0 IOpClX= 0 NMat=1 NMatS=1 NMatT=0.
 FoFJK:  IHMeth=40 ICntrl=    2127 DoSepK=F KAlg= 0 I1Cent=           0 FoldK=F
 IRaf=         0 NMat=       1 IRICut=       1 DoRegI=T DoRafI=F ISym2E= 0.
 FoFCou: FMM=F IPFlag=           0 FMFlag=      100000 FMFlg1=         800
         NFxFlg=           0 DoJE=F BraDBF=F KetDBF=F FulRan=T
         wScrn=  0.000000 ICntrl=      2127 IOpCl=  0 I1Cent=           0 NGrid=           0
         NMat0=    1 NMatS0=      1 NMatT0=    0 NMatD0=    1 NMtDS0=    0 NMtDT0=    0
 Symmetry not used in FoFCou.
 Leave Link  703 at Thu Aug 20 16:12:56 2015, MaxMem=    26214400 cpu:               0.0 elap:               0.0
 (Enter /home/lijunj/Gauss/gdv-h37p/gdv/l716.exe)
 Dipole        = 9.55700605D-01 4.18724546D-01 2.64931331D-01
 ***** Axes restored to original set *****
 -------------------------------------------------------------------
 Center     Atomic                   Forces (Hartrees/Bohr)
 Number     Number              X              Y              Z
 -------------------------------------------------------------------
      1        8           0.024701618    0.015336841   -0.015408804
      2        1          -0.018906397   -0.010284240    0.010618727
      3        1           0.002164877   -0.017703280    0.002810458
      4        1          -0.014247552    0.009679029    0.003013910
      5        8          -0.000891461   -0.000794574    0.000455154
      6        1           0.003758727    0.001375405   -0.003254731
      7        1           0.003420188    0.002390818    0.001765287
 -------------------------------------------------------------------
 Cartesian Forces:  Max     0.024701618 RMS     0.010554445
 Z-matrix is all fixed cartesians, so copy forces.
 Force constants in Cartesian coordinates: 
                1             2             3             4             5 
      1  0.788071D+00
      2  0.437657D-04  0.788037D+00
      3 -0.110276D-02 -0.483633D-03  0.157612D+00
      4 -0.337286D+00 -0.136718D+00  0.794138D-01  0.333648D+00
      5 -0.136728D+00 -0.187826D+00  0.470690D-01  0.153379D+00  0.165962D+00
      6  0.105572D+00  0.625784D-01 -0.529342D-01 -0.826686D-01 -0.490042D-01
      7 -0.106763D+00  0.342073D-02  0.115168D-02  0.162144D-01 -0.338997D-01
      8  0.346639D-02 -0.418676D+00 -0.913395D-01  0.150256D-02 -0.346744D-02
      9  0.150311D-02 -0.121748D+00 -0.523838D-01 -0.570381D-02  0.133330D-01
     10 -0.344022D+00  0.133253D+00 -0.794627D-01 -0.125764D-01  0.172485D-01
     11  0.133218D+00 -0.181535D+00  0.447542D-01 -0.181636D-01  0.253310D-01
     12 -0.105973D+00  0.596531D-01 -0.522942D-01  0.895868D-02 -0.113977D-01
     13  0.000000D+00  0.000000D+00  0.000000D+00  0.000000D+00  0.000000D+00
     14  0.000000D+00  0.000000D+00  0.000000D+00  0.000000D+00  0.000000D+00
     15  0.000000D+00  0.000000D+00  0.000000D+00  0.000000D+00  0.000000D+00
     16  0.000000D+00  0.000000D+00  0.000000D+00  0.000000D+00  0.000000D+00
     17  0.000000D+00  0.000000D+00  0.000000D+00  0.000000D+00  0.000000D+00
     18  0.000000D+00  0.000000D+00  0.000000D+00  0.000000D+00  0.000000D+00
     19  0.000000D+00  0.000000D+00  0.000000D+00  0.000000D+00  0.000000D+00
     20  0.000000D+00  0.000000D+00  0.000000D+00  0.000000D+00  0.000000D+00
     21  0.000000D+00  0.000000D+00  0.000000D+00  0.000000D+00  0.000000D+00
                6             7             8             9            10 
      6  0.367651D-01
      7 -0.142803D-01  0.750284D-01
      8 -0.203335D-02 -0.389984D-02  0.424848D+00
      9  0.808978D-02 -0.116808D-02  0.950702D-01  0.362713D-01
     10 -0.862344D-02  0.155200D-01 -0.106911D-02  0.536878D-02  0.341078D+00
     11 -0.115408D-01  0.343789D-01 -0.270445D-02  0.133447D-01 -0.149433D+00
     12  0.807927D-02  0.142967D-01 -0.169735D-02  0.802269D-02  0.827174D-01
     13  0.000000D+00  0.000000D+00  0.000000D+00  0.000000D+00  0.000000D+00
     14  0.000000D+00  0.000000D+00  0.000000D+00  0.000000D+00  0.000000D+00
     15  0.000000D+00  0.000000D+00  0.000000D+00  0.000000D+00  0.000000D+00
     16  0.000000D+00  0.000000D+00  0.000000D+00  0.000000D+00  0.000000D+00
     17  0.000000D+00  0.000000D+00  0.000000D+00  0.000000D+00  0.000000D+00
     18  0.000000D+00  0.000000D+00  0.000000D+00  0.000000D+00  0.000000D+00
     19  0.000000D+00  0.000000D+00  0.000000D+00  0.000000D+00  0.000000D+00
     20  0.000000D+00  0.000000D+00  0.000000D+00  0.000000D+00  0.000000D+00
     21  0.000000D+00  0.000000D+00  0.000000D+00  0.000000D+00  0.000000D+00
               11            12            13            14            15 
     11  0.158908D+00
     12 -0.465581D-01  0.361922D-01
     13  0.000000D+00  0.000000D+00  0.447502D+00
     14  0.000000D+00  0.000000D+00  0.148303D+00  0.923954D-01
     15  0.000000D+00  0.000000D+00 -0.392719D-01  0.156076D+00  0.664561D+00
     16  0.000000D+00  0.000000D+00 -0.225800D+00 -0.145963D-01  0.255322D+00
     17  0.000000D+00  0.000000D+00 -0.252895D-01 -0.985587D-02 -0.354726D-02
     18  0.000000D+00  0.000000D+00  0.213513D+00 -0.183410D-01 -0.367102D+00
     19  0.000000D+00  0.000000D+00 -0.221701D+00 -0.133707D+00 -0.216050D+00
     20  0.000000D+00  0.000000D+00 -0.123013D+00 -0.825395D-01 -0.152528D+00
     21  0.000000D+00  0.000000D+00 -0.174241D+00 -0.137735D+00 -0.297459D+00
               16            17            18            19            20 
     16  0.197829D+00
     17  0.106027D-01  0.775898D-02
     18 -0.232238D+00  0.156676D-01  0.382555D+00
     19  0.279712D-01  0.146867D-01  0.187249D-01  0.193730D+00
     20  0.399357D-02  0.209689D-02  0.267344D-02  0.119020D+00  0.804426D-01
     21 -0.230834D-01 -0.121203D-01 -0.154529D-01  0.197325D+00  0.149855D+00
               21 
     21  0.312912D+00
 Leave Link  716 at Thu Aug 20 16:12:57 2015, MaxMem=    26214400 cpu:               0.0 elap:               0.0
 (Enter /home/lijunj/Gauss/gdv-h37p/gdv/l103.exe)

 GradGradGradGradGradGradGradGradGradGradGradGradGradGradGradGradGradGrad
 Berny optimization.
 Search for a local minimum.
 Step number   1 out of a maximum of    2
 All quantities printed in internal units (Hartrees-Bohrs-Radians)
 Second derivative matrix not updated -- first step.
 ITU=  0
     Eigenvalues ---    0.00000   0.00000   0.00000   0.00000   0.00000
     Eigenvalues ---    0.00000   0.09146   0.15346   0.16135   0.16375
     Eigenvalues ---    0.50944   0.89049   1.01109   1.08359   1.11581
 Eigenvalue     1 is  -4.44D-16 should be greater than     0.000000 Eigenvector:
                          Y7        Y6        X6        Z5        X7
   1                    0.63727  -0.34254  -0.30277   0.25168   0.24857
                          Z7        Z3        X3        Z2        Z4
   1                   -0.23380  -0.20090  -0.19829  -0.19124   0.17437
 Eigenvalue     2 is  -1.11D-16 should be greater than     0.000000 Eigenvector:
                          Z4        Y6        X6        Y2        Z3
   1                    0.48418  -0.39113   0.37538   0.30985  -0.25482
                          Z2        X2        X4        X3        X7
   1                   -0.23474  -0.21590  -0.20911   0.20648  -0.20059
 Eigenvalue     3 is   4.44D-16 Eigenvector:
                          X7        Y5        Y6        X2        X4
   1                    0.59549   0.49562  -0.22394  -0.21521  -0.21421
                          Y4        X1        Y7        Y3        X6
   1                   -0.20860  -0.20767  -0.20628  -0.14997   0.14041
 Eigenvalue     4 is   4.44D-16 Eigenvector:
                          Y2        Y6        Y5        X2        X4
   1                    0.36992   0.35751  -0.33233  -0.31257  -0.30506
                          Y4        X3        X5        Y7        X7
   1                   -0.29711   0.26894   0.25351   0.22537   0.21031
 Eigenvalue     5 is   1.33D-15 Eigenvector:
                          X6        Y6        X3        Y7        Y2
   1                    0.48837   0.42493  -0.38946   0.31582  -0.28707
                          X5        Z4        X1        X7        Z5
   1                    0.28061   0.17553  -0.17313  -0.16503  -0.14376
 Eigenvalue     6 is   9.59D-12 Eigenvector:
                          Z2        Z3        Y6        Y7        Z7
   1                    0.80666  -0.45777  -0.16149   0.15141  -0.12249
                          Z4        Z5        X6        Y2        Z1
   1                   -0.12084  -0.10219   0.09357   0.08126   0.07633
 Quadratic step=5.512D+01 exceeds max=3.000D-01 adjusted using Lamda=-2.242D-02.
 Angle between NR and scaled steps=  35.12 degrees.
 Angle between quadratic step and forces=  63.85 degrees.
 Linear search not attempted -- first point.
 B after Tr=     0.003639    0.002653   -0.029026
         Rot=    0.999996    0.001105   -0.002532   -0.001131 Ang=   0.34 deg.
 Variable       Old X    -DE/DX   Delta X   Delta X   Delta X     New X
                                 (Linear)    (Quad)   (Total)
    X1        0.00022   0.02470   0.00000  -0.06185  -0.06220  -0.06198
    Y1       -0.00182   0.01534   0.00000  -0.03024  -0.02950  -0.03132
    Z1       -0.73050  -0.01541   0.00000  -0.07256  -0.10119  -0.83169
    X2       -1.61035  -0.01891   0.00000  -0.08427  -0.07944  -1.68980
    Y2       -0.95689  -0.01028   0.00000  -0.01491  -0.01653  -0.97342
    Z2       -0.29198   0.01062   0.00000   0.08715   0.06886  -0.22312
    X3       -0.02079   0.00216   0.00000  -0.01778  -0.01931  -0.04010
    Y3        1.87186  -0.01770   0.00000  -0.09699  -0.09493   1.77693
    Z3       -0.29665   0.00281   0.00000   0.07114   0.03840  -0.25825
    X4        1.63409  -0.01425   0.00000  -0.11960  -0.11503   1.51906
    Y4       -0.91950   0.00968   0.00000   0.00286   0.00844  -0.91106
    Z4       -0.29744   0.00301   0.00000   0.07640   0.04172  -0.25572
    X5       -3.99972  -0.00089   0.00000   0.08995   0.10034  -3.89939
    Y5       -2.52124  -0.00079   0.00000   0.02008   0.01438  -2.50687
    Z5        0.20790   0.00046   0.00000  -0.00590  -0.00961   0.19829
    X6       -5.02477   0.00376   0.00000   0.07224   0.09004  -4.93473
    Y6       -2.49715   0.00138   0.00000   0.06665   0.06190  -2.43526
    Z6        1.72021  -0.00325   0.00000  -0.02598  -0.02459   1.69562
    X7       -5.01276   0.00342   0.00000   0.08059   0.08561  -4.92716
    Y7       -3.22480   0.00239   0.00000   0.06727   0.05625  -3.16854
    Z7       -1.14136   0.00177   0.00000  -0.01653  -0.01359  -1.15495
         Item               Value     Threshold  Converged?
 Maximum Force            0.024702     0.000450     NO 
 RMS     Force            0.010554     0.000300     NO 
 Maximum Displacement     0.115029     0.001800     NO 
 RMS     Displacement     0.063917     0.001200     NO 
 Predicted change in Energy=-4.208797D-03
 GradGradGradGradGradGradGradGradGradGradGradGradGradGradGradGradGradGrad

 Leave Link  103 at Thu Aug 20 16:12:57 2015, MaxMem=    26214400 cpu:               0.0 elap:               0.0
 (Enter /home/lijunj/Gauss/gdv-h37p/gdv/l9999.exe)

 Test job not archived.
 1\1\GINC-BL-CHEM-IYENGAR11\Force\RPM6\ZDO\H5O2(1+)\LIJUNJ\20-Aug-2015\
 0\\#p pm6 iop(2/29=1) force\\title\\1,1\O,0.000116,-0.000961,-0.386565
 \H,-0.852163,-0.506364,-0.154508\H,-0.011003,0.990547,-0.156979\H,0.86
 4723,-0.486579,-0.1574\O,-2.116563,-1.334184,0.110015\H,-2.658992,-1.3
 21437,0.910294\H,-2.652639,-1.706489,-0.603982\\Version=AM64L-GDVRevH.
 37+\State=1-A\HF=0.1087886\RMSD=4.212e-09\RMSF=1.055e-02\Dipole=0.7545
 484,0.712243,0.2867912\PG=C01 [X(H5O2)]\\@


 "I COULD HAVE DONE IT IN A MUCH MORE COMPLICATED WAY"
 SAID THE RED QUEEN, IMMENSELY PROUD.

                                      -- LEWIS CARROLL
 Job cpu time:       0 days  0 hours  0 minutes  0.8 seconds.
 Elapsed time:       0 days  0 hours  0 minutes  0.6 seconds.
 File lengths (MBytes):  RWF=      5 Int=      0 D2E=      0 Chk=      2 Scr=      1
 Normal termination of Gaussian DV at Thu Aug 20 16:12:57 2015.
