 Entering Gaussian System, Link 0=gdv
 Initial command:
 /home/lijunj/Gauss/gdv-h37p/gdv/l1.exe "/scratch/lijunj/Gau-11408.inp" -scrdir="/scratch/lijunj/"
 Entering Link 1 = /home/lijunj/Gauss/gdv-h37p/gdv/l1.exe PID=     11409.
  
 Copyright (c) 1988,1990,1992,1993,1995,1998,2003,2009,2014,
            Gaussian, Inc.  All Rights Reserved.
  
 This is the private, development version of
 the Gaussian(R) DV system of programs. It is based on
 the Gaussian(R) 09 system (copyright 2009, Gaussian, Inc.),
 the Gaussian(R) 03 system (copyright 2003, Gaussian, Inc.),
 the Gaussian(R) 98 system (copyright 1998, Gaussian, Inc.),
 the Gaussian(R) 94 system (copyright 1995, Gaussian, Inc.),
 the Gaussian 92(TM) system (copyright 1992, Gaussian, Inc.),
 the Gaussian 90(TM) system (copyright 1990, Gaussian, Inc.),
 the Gaussian 88(TM) system (copyright 1988, Gaussian, Inc.),
 the Gaussian 86(TM) system (copyright 1986, Carnegie Mellon
 University), and the Gaussian 82(TM) system (copyright 1983,
 Carnegie Mellon University). Gaussian is a federally registered
 trademark of Gaussian, Inc.
  
 This software contains proprietary and confidential information,
 including trade secrets, belonging to Gaussian, Inc.
  
 This software is provided under written license and may be
 used, copied, transmitted, or stored only in accord with that
 written license.
  
 The following legend is applicable only to US Government
 contracts under FAR:
  
                    RESTRICTED RIGHTS LEGEND
  
 Use, reproduction and disclosure by the US Government is
 subject to restrictions as set forth in subparagraphs (a)
 and (c) of the Commercial Computer Software - Restricted
 Rights clause in FAR 52.227-19.
  
 Gaussian, Inc.
 340 Quinnipiac St., Bldg. 40, Wallingford CT 06492
  
  
 ---------------------------------------------------------------
 Warning -- This program may not be used in any manner that
 competes with the business of Gaussian, Inc. or will provide
 assistance to any competitor of Gaussian, Inc.  The licensee
 of this program is prohibited from giving any competitor of
 Gaussian, Inc. access to this program.  By using this program,
 the user acknowledges that Gaussian, Inc. is engaged in the
 business of creating and licensing software in the field of
 computational chemistry and represents and warrants to the
 licensee that it is not a competitor of Gaussian, Inc. and that
 it will not use this program in any manner prohibited above.
 ---------------------------------------------------------------
  

 Cite this work as:
 Gaussian Development Version, Revision H.37+,
 M. J. Frisch, G. W. Trucks, H. B. Schlegel, G. E. Scuseria, 
 M. A. Robb, J. R. Cheeseman, G. Scalmani, V. Barone, B. Mennucci, 
 G. A. Petersson, H. Nakatsuji, M. Caricato, X. Li, H. P. Hratchian, 
 A. F. Izmaylov, J. Bloino, B. G. Janesko, F. Lipparini, G. Zheng, 
 J. L. Sonnenberg, W. Liang, M. Hada, M. Ehara, K. Toyota, R. Fukuda, 
 J. Hasegawa, M. Ishida, T. Nakajima, Y. Honda, O. Kitao, H. Nakai, 
 T. Vreven, J. A. Montgomery, Jr., J. E. Peralta, F. Ogliaro, 
 M. Bearpark, J. J. Heyd, E. Brothers, K. N. Kudin, V. N. Staroverov, 
 T. Keith, R. Kobayashi, J. Normand, K. Raghavachari, A. Rendell, 
 J. C. Burant, S. S. Iyengar, J. Tomasi, M. Cossi, N. Rega, 
 J. M. Millam, M. Klene, J. E. Knox, J. B. Cross, V. Bakken, 
 C. Adamo, J. Jaramillo, R. Gomperts, R. E. Stratmann, O. Yazyev, 
 A. J. Austin, R. Cammi, C. Pomelli, J. W. Ochterski, R. L. Martin, 
 K. Morokuma, V. G. Zakrzewski, G. A. Voth, P. Salvador, 
 J. J. Dannenberg, S. Dapprich, P. V. Parandekar, N. J. Mayhall, 
 A. D. Daniels, O. Farkas, J. B. Foresman, J. V. Ortiz, 
 J. Cioslowski, and D. J. Fox, Gaussian, Inc., Wallingford CT, 2010.
 
 *******************************************
 Gaussian DV:  AM64L-GDVRevH.37+ 17-Apr-2014
                 20-Aug-2015 
 *******************************************
 %mem=200MB
 %chk=FHF.chk
 %nproc=1
 Will use up to    1 processors via shared memory.
 ------------------------
 #p pm6 iop(2/29=1) force
 ------------------------
 1/10=7,30=1,38=1/1,3;
 2/12=2,17=6,18=5,29=1,40=1/2;
 3/5=2,16=1,25=1,41=3900000,71=1/1,2,3;
 4/35=1/1;
 5/5=2,35=1,38=5/2;
 6/7=2,8=2,9=2,10=2,28=1/1;
 7/29=1/1,2,3,16;
 1/10=7,30=1/3;
 99//99;
 Leave Link    1 at Thu Aug 20 16:13:02 2015, MaxMem=    26214400 cpu:               0.0 elap:               0.0
 (Enter /home/lijunj/Gauss/gdv-h37p/gdv/l101.exe)
 -----
 title
 -----
 Symbolic Z-matrix:
 Charge =  1 Multiplicity = 1
 O                     0.00012  -0.00096  -0.38657 
 H                    -0.85216  -0.50636  -0.15451 
 H                    -0.011     0.99055  -0.15698 
 H                     0.86472  -0.48658  -0.1574 
 O                    -0.09907   2.49855   0.10964 
 H                    -0.1495    3.15051  -0.60323 
 H                     0.1817    2.95971   0.91175 
 
 ITRead=  0  0  0  0  0  0  0
 MicOpt= -1 -1 -1 -1 -1 -1 -1
 NAtoms=      7 NQM=        7 NQMF=       0 NMMI=      0 NMMIF=      0
                NMic=       0 NMicF=      0.
                    Isotopes and Nuclear Properties:
 (Nuclear quadrupole moments (NQMom) in fm**2, nuclear magnetic moments (NMagM)
  in nuclear magnetons)

  Atom         1           2           3           4           5           6           7
 IAtWgt=          16           1           1           1          16           1           1
 AtmWgt=  15.9949146   1.0078250   1.0078250   1.0078250  15.9949146   1.0078250   1.0078250
 NucSpn=           0           1           1           1           0           1           1
 AtZEff=   0.0000000   0.0000000   0.0000000   0.0000000   0.0000000   0.0000000   0.0000000
 NQMom=    0.0000000   0.0000000   0.0000000   0.0000000   0.0000000   0.0000000   0.0000000
 NMagM=    0.0000000   2.7928460   2.7928460   2.7928460   0.0000000   2.7928460   2.7928460
 AtZNuc=   8.0000000   1.0000000   1.0000000   1.0000000   8.0000000   1.0000000   1.0000000
 Leave Link  101 at Thu Aug 20 16:13:02 2015, MaxMem=    26214400 cpu:               0.1 elap:               0.2
 (Enter /home/lijunj/Gauss/gdv-h37p/gdv/l103.exe)

 GradGradGradGradGradGradGradGradGradGradGradGradGradGradGradGradGradGrad
 Berny optimization.
 Initialization pass.
 Trust Radius=3.00D-01 FncErr=1.00D-07 GrdErr=1.00D-07 EigMax=2.50D+02 EigMin=1.00D-04
 Number of steps in this run=      2 maximum allowed number of steps=      2.
 GradGradGradGradGradGradGradGradGradGradGradGradGradGradGradGradGradGrad

 Leave Link  103 at Thu Aug 20 16:13:02 2015, MaxMem=    26214400 cpu:               0.0 elap:               0.0
 (Enter /home/lijunj/Gauss/gdv-h37p/gdv/l202.exe)
                          Input orientation:                          
 ---------------------------------------------------------------------
 Center     Atomic      Atomic             Coordinates (Angstroms)
 Number     Number       Type             X           Y           Z
 ---------------------------------------------------------------------
      1          8           0        0.000116   -0.000961   -0.386565
      2          1           0       -0.852163   -0.506364   -0.154508
      3          1           0       -0.011003    0.990547   -0.156979
      4          1           0        0.864723   -0.486579   -0.157400
      5          8           0       -0.099071    2.498550    0.109641
      6          1           0       -0.149496    3.150512   -0.603231
      7          1           0        0.181701    2.959711    0.911754
 ---------------------------------------------------------------------
                    Distance matrix (angstroms):
                    1          2          3          4          5
     1  O    0.000000
     2  H    1.017675   0.000000
     3  H    1.017802   1.717061   0.000000
     4  H    1.017785   1.717002   1.717206   0.000000
     5  O    2.550218   3.109088   1.533922   3.148207   0.000000
     6  H    3.162453   3.750711   2.209925   3.802083   0.967359
     7  H    3.237929   3.770871   2.248762   3.672400   0.966896
                    6          7
     6  H    0.000000
     7  H    1.562458   0.000000
 Stoichiometry    H5O2(1+)
 Framework group  C1[X(H5O2)]
 Deg. of freedom    15
 Full point group                 C1      NOp   1
 Largest Abelian subgroup         C1      NOp   1
 Largest concise Abelian subgroup C1      NOp   1
                         Standard orientation:                         
 ---------------------------------------------------------------------
 Center     Atomic      Atomic             Coordinates (Angstroms)
 Number     Number       Type             X           Y           Z
 ---------------------------------------------------------------------
      1          8           0        1.271593   -0.033328   -0.061175
      2          1           0        1.711126   -0.605182    0.656778
      3          1           0        0.256096    0.014368   -0.012061
      4          1           0        1.735851    0.852433   -0.250330
      5          8           0       -1.276910   -0.016713    0.030855
      6          1           0       -1.806620   -0.472950   -0.637754
      7          1           0       -1.853923    0.611659    0.485928
 ---------------------------------------------------------------------
 Rotational constants (GHZ):    172.6311687      7.6608023      7.6013437
 Leave Link  202 at Thu Aug 20 16:13:02 2015, MaxMem=    26214400 cpu:               0.0 elap:               0.0
 (Enter /home/lijunj/Gauss/gdv-h37p/gdv/l301.exe)
 Standard basis: VSTO-6G (5D, 7F)
 Ernie: Thresh=  0.10000D-02 Tol=  0.10000D-05 Strict=F.
  NNHCO=     0 NNPyr=     0 NCTC=     0               EPep=         0.000000000
    EC=        24.694684579  ECS=         1.208022134   EG=         0.003403317
   EHC=         0.000021588  EAt=       -23.170052728  AtH=         0.604975726
 EPDDG=         0.000000000  ECC=        25.906131620 EAtT=        23.775028454
 There are    13 symmetry adapted cartesian basis functions of A   symmetry.
 There are    13 symmetry adapted basis functions of A   symmetry.
    13 basis functions,    78 primitive gaussians,    13 cartesian basis functions
     8 alpha electrons        8 beta electrons
       nuclear repulsion energy        49.6811600738 Hartrees.
 IExCor=    0 DFT=F Ex=HF Corr=None ExCW=0 ScaHFX=  1.000000
 ScaDFX=  1.000000  1.000000  1.000000  1.000000 ScalE2=  1.000000  1.000000
 IRadAn=      0 IRanWt=     -1 IRanGd=            0 ICorTp=0 IEmpDi=  4
 Integral buffers will be    131072 words long.
 Regular integral format.
 Two-electron integral symmetry is turned off.
 Leave Link  301 at Thu Aug 20 16:13:02 2015, MaxMem=    26214400 cpu:               0.1 elap:               0.1
 (Enter /home/lijunj/Gauss/gdv-h37p/gdv/l302.exe)
 Do NDO integrals.
 NPDir=0 NMtPBC=     1 NCelOv=     1 NCel=       1 NClECP=     1 NCelD=      1
         NCelK=      1 NCelE2=     1 NClLst=     1 CellRange=     0.0.
 One-electron integrals computed using PRISM.
 NBasis=    13 RedAO= F EigKep=  0.00D+00  NBF=    13
 NBsUse=    13 1.00D-04 EigRej=  0.00D+00 NBFU=    13
 Leave Link  302 at Thu Aug 20 16:13:02 2015, MaxMem=    26214400 cpu:               0.1 elap:               0.1
 (Enter /home/lijunj/Gauss/gdv-h37p/gdv/l303.exe)
 DipDrv:  MaxL=1.
 Leave Link  303 at Thu Aug 20 16:13:02 2015, MaxMem=    26214400 cpu:               0.0 elap:               0.0
 (Enter /home/lijunj/Gauss/gdv-h37p/gdv/l401.exe)
 Simple Huckel Guess.
 JPrj=0 DoOrth=F DoCkMO=F.
 Leave Link  401 at Thu Aug 20 16:13:02 2015, MaxMem=    26214400 cpu:               0.0 elap:               0.0
 (Enter /home/lijunj/Gauss/gdv-h37p/gdv/l502.exe)
 Keep J ints in memory in canonical form, NReq=859296.
 FoFCou: FMM=F IPFlag=           0 FMFlag=           0 FMFlg1=           0
         NFxFlg=           0 DoJE=F BraDBF=F KetDBF=F FulRan=T
         wScrn=  0.000000 ICntrl=       600 IOpCl=  2 I1Cent=           0 NGrid=           0
         NMat0=    1 NMatS0=     25 NMatT0=    0 NMatD0=    1 NMtDS0=    0 NMtDT0=    0
 Symmetry not used in FoFCou.
 Two-electron integral symmetry not used.
 Closed shell SCF:
 Using DIIS extrapolation, IDIIS=  1040.
 Overlap will be assumed to be unity.
 NGot=    26214400 LenX=    26153925 LenY=    26153043
 Requested convergence on RMS density matrix=1.00D-08 within 128 cycles.
 Requested convergence on MAX density matrix=1.00D-06.
 Requested convergence on             energy=1.00D-06.
 No special actions if energy rises.

 Cycle   1  Pass 1  IDiag  1:
 E= 0.292411430140056    
 DIIS: error= 5.56D-02 at cycle   1 NSaved=   1.
 NSaved= 1 IEnMin= 1 EnMin= 0.292411430140056     IErMin= 1 ErrMin= 5.56D-02
 ErrMax= 5.56D-02  0.00D+00 EMaxC= 1.00D-01 BMatC= 7.35D-02 BMatP= 7.35D-02
 IDIUse=3 WtCom= 4.44D-01 WtEn= 5.56D-01
 Coeff-Com:  0.100D+01
 Coeff-En:   0.100D+01
 Coeff:      0.100D+01
 GapD=    2.000 DampG=2.000 DampE=0.500 DampFc=1.0000 IDamp=-1.
 RMSDP=2.72D-02 MaxDP=1.54D-01              OVMax= 0.00D+00

 Cycle   2  Pass 1  IDiag  1:
 E= 0.126206555777031     Delta-E=       -0.166204874363 Rises=F Damp=F
 DIIS: error= 1.46D-02 at cycle   2 NSaved=   2.
 NSaved= 2 IEnMin= 2 EnMin= 0.126206555777031     IErMin= 2 ErrMin= 1.46D-02
 ErrMax= 1.46D-02  0.00D+00 EMaxC= 1.00D-01 BMatC= 4.74D-03 BMatP= 7.35D-02
 IDIUse=3 WtCom= 8.54D-01 WtEn= 1.46D-01
 Coeff-Com: -0.275D+00 0.128D+01
 Coeff-En:   0.000D+00 0.100D+01
 Coeff:     -0.235D+00 0.124D+01
 RMSDP=1.00D-02 MaxDP=4.40D-02 DE=-1.66D-01 OVMax= 0.00D+00

 Cycle   3  Pass 1  IDiag  3:
 E= 0.111014256804033     Delta-E=       -0.015192298973 Rises=F Damp=F
 DIIS: error= 3.61D-03 at cycle   3 NSaved=   3.
 NSaved= 3 IEnMin= 3 EnMin= 0.111014256804033     IErMin= 3 ErrMin= 3.61D-03
 ErrMax= 3.61D-03  0.00D+00 EMaxC= 1.00D-01 BMatC= 3.80D-04 BMatP= 4.74D-03
 IDIUse=3 WtCom= 9.64D-01 WtEn= 3.61D-02
 Coeff-Com:  0.208D+00-0.115D+01 0.195D+01
 Coeff-En:   0.000D+00 0.000D+00 0.100D+01
 Coeff:      0.201D+00-0.111D+01 0.191D+01
 Gap=     0.462 Goal=   None    Shift=    0.000
 RMSDP=5.84D-03 MaxDP=2.25D-02 DE=-1.52D-02 OVMax= 2.72D-02

 Cycle   4  Pass 1  IDiag  3:
 E= 0.108796266849559     Delta-E=       -0.002217989954 Rises=F Damp=F
 DIIS: error= 5.15D-04 at cycle   4 NSaved=   4.
 NSaved= 4 IEnMin= 4 EnMin= 0.108796266849559     IErMin= 4 ErrMin= 5.15D-04
 ErrMax= 5.15D-04  0.00D+00 EMaxC= 1.00D-01 BMatC= 4.90D-06 BMatP= 3.80D-04
 IDIUse=3 WtCom= 9.95D-01 WtEn= 5.15D-03
 Coeff-Com: -0.337D-01 0.206D+00-0.457D+00 0.129D+01
 Coeff-En:   0.000D+00 0.000D+00 0.000D+00 0.100D+01
 Coeff:     -0.335D-01 0.205D+00-0.455D+00 0.128D+01
 Gap=     0.462 Goal=   None    Shift=    0.000
 RMSDP=6.75D-04 MaxDP=2.03D-03 DE=-2.22D-03 OVMax= 3.39D-03

 Cycle   5  Pass 1  IDiag  3:
 E= 0.108768334896887     Delta-E=       -0.000027931953 Rises=F Damp=F
 DIIS: error= 7.29D-05 at cycle   5 NSaved=   5.
 NSaved= 5 IEnMin= 5 EnMin= 0.108768334896887     IErMin= 5 ErrMin= 7.29D-05
 ErrMax= 7.29D-05  0.00D+00 EMaxC= 1.00D-01 BMatC= 2.48D-07 BMatP= 4.90D-06
 IDIUse=1 WtCom= 1.00D+00 WtEn= 0.00D+00
 Coeff-Com:  0.749D-02-0.542D-01 0.151D+00-0.604D+00 0.150D+01
 Coeff:      0.749D-02-0.542D-01 0.151D+00-0.604D+00 0.150D+01
 Gap=     0.462 Goal=   None    Shift=    0.000
 RMSDP=1.21D-04 MaxDP=3.40D-04 DE=-2.79D-05 OVMax= 5.83D-04

 Cycle   6  Pass 1  IDiag  3:
 E= 0.108767078133106     Delta-E=       -0.000001256764 Rises=F Damp=F
 DIIS: error= 2.82D-05 at cycle   6 NSaved=   6.
 NSaved= 6 IEnMin= 6 EnMin= 0.108767078133106     IErMin= 6 ErrMin= 2.82D-05
 ErrMax= 2.82D-05  0.00D+00 EMaxC= 1.00D-01 BMatC= 1.50D-08 BMatP= 2.48D-07
 IDIUse=1 WtCom= 1.00D+00 WtEn= 0.00D+00
 Coeff-Com: -0.178D-02 0.166D-01-0.582D-01 0.274D+00-0.873D+00 0.164D+01
 Coeff:     -0.178D-02 0.166D-01-0.582D-01 0.274D+00-0.873D+00 0.164D+01
 Gap=     0.462 Goal=   None    Shift=    0.000
 RMSDP=4.09D-05 MaxDP=1.43D-04 DE=-1.26D-06 OVMax= 3.07D-04

 Cycle   7  Pass 1  IDiag  3:
 E= 0.108766983612966     Delta-E=       -0.000000094520 Rises=F Damp=F
 DIIS: error= 3.38D-06 at cycle   7 NSaved=   7.
 NSaved= 7 IEnMin= 7 EnMin= 0.108766983612966     IErMin= 7 ErrMin= 3.38D-06
 ErrMax= 3.38D-06  0.00D+00 EMaxC= 1.00D-01 BMatC= 4.04D-10 BMatP= 1.50D-08
 IDIUse=1 WtCom= 1.00D+00 WtEn= 0.00D+00
 Coeff-Com:  0.619D-03-0.657D-02 0.247D-01-0.119D+00 0.384D+00-0.792D+00
 Coeff-Com:  0.151D+01
 Coeff:      0.619D-03-0.657D-02 0.247D-01-0.119D+00 0.384D+00-0.792D+00
 Coeff:      0.151D+01
 Gap=     0.462 Goal=   None    Shift=    0.000
 RMSDP=5.30D-06 MaxDP=1.42D-05 DE=-9.45D-08 OVMax= 2.98D-05

 Cycle   8  Pass 1  IDiag  3:
 E= 0.108766981584672     Delta-E=       -0.000000002028 Rises=F Damp=F
 DIIS: error= 6.36D-07 at cycle   8 NSaved=   8.
 NSaved= 8 IEnMin= 8 EnMin= 0.108766981584672     IErMin= 8 ErrMin= 6.36D-07
 ErrMax= 6.36D-07  0.00D+00 EMaxC= 1.00D-01 BMatC= 1.17D-11 BMatP= 4.04D-10
 IDIUse=1 WtCom= 1.00D+00 WtEn= 0.00D+00
 Coeff-Com: -0.983D-04 0.124D-02-0.494D-02 0.242D-01-0.778D-01 0.160D+00
 Coeff-Com: -0.397D+00 0.129D+01
 Coeff:     -0.983D-04 0.124D-02-0.494D-02 0.242D-01-0.778D-01 0.160D+00
 Coeff:     -0.397D+00 0.129D+01
 Gap=     0.462 Goal=   None    Shift=    0.000
 RMSDP=8.93D-07 MaxDP=2.95D-06 DE=-2.03D-09 OVMax= 4.43D-06

 Cycle   9  Pass 1  IDiag  3:
 E= 0.108766981524731     Delta-E=       -0.000000000060 Rises=F Damp=F
 DIIS: error= 1.51D-07 at cycle   9 NSaved=   9.
 NSaved= 9 IEnMin= 9 EnMin= 0.108766981524731     IErMin= 9 ErrMin= 1.51D-07
 ErrMax= 1.51D-07  0.00D+00 EMaxC= 1.00D-01 BMatC= 5.36D-13 BMatP= 1.17D-11
 IDIUse=1 WtCom= 1.00D+00 WtEn= 0.00D+00
 Coeff-Com:  0.175D-04-0.210D-03 0.770D-03-0.351D-02 0.107D-01-0.194D-01
 Coeff-Com:  0.601D-01-0.384D+00 0.134D+01
 Coeff:      0.175D-04-0.210D-03 0.770D-03-0.351D-02 0.107D-01-0.194D-01
 Coeff:      0.601D-01-0.384D+00 0.134D+01
 Gap=     0.462 Goal=   None    Shift=    0.000
 RMSDP=2.16D-07 MaxDP=8.94D-07 DE=-5.99D-11 OVMax= 1.40D-06

 Cycle  10  Pass 1  IDiag  3:
 E= 0.108766981521590     Delta-E=       -0.000000000003 Rises=F Damp=F
 DIIS: error= 2.21D-08 at cycle  10 NSaved=  10.
 NSaved=10 IEnMin=10 EnMin= 0.108766981521590     IErMin=10 ErrMin= 2.21D-08
 ErrMax= 2.21D-08  0.00D+00 EMaxC= 1.00D-01 BMatC= 2.14D-14 BMatP= 5.36D-13
 IDIUse=1 WtCom= 1.00D+00 WtEn= 0.00D+00
 Coeff-Com: -0.156D-05 0.129D-04-0.186D-04-0.409D-04 0.367D-03-0.206D-02
 Coeff-Com:  0.522D-04 0.702D-01-0.469D+00 0.140D+01
 Coeff:     -0.156D-05 0.129D-04-0.186D-04-0.409D-04 0.367D-03-0.206D-02
 Coeff:      0.522D-04 0.702D-01-0.469D+00 0.140D+01
 Gap=     0.462 Goal=   None    Shift=    0.000
 RMSDP=4.68D-08 MaxDP=1.52D-07 DE=-3.14D-12 OVMax= 0.00D+00

 Cycle  11  Pass 1  IDiag  3:
 E= 0.108766981521505     Delta-E=        0.000000000000 Rises=F Damp=F
 DIIS: error= 2.33D-09 at cycle  11 NSaved=  11.
 NSaved=11 IEnMin=11 EnMin= 0.108766981521505     IErMin=11 ErrMin= 2.33D-09
 ErrMax= 2.33D-09  0.00D+00 EMaxC= 1.00D-01 BMatC= 2.23D-16 BMatP= 2.14D-14
 IDIUse=1 WtCom= 1.00D+00 WtEn= 0.00D+00
 Coeff-Com: -0.597D-08 0.309D-06-0.808D-05 0.727D-04-0.283D-03 0.971D-03
 Coeff-Com: -0.731D-03-0.178D-01 0.131D+00-0.436D+00 0.132D+01
 Coeff:     -0.597D-08 0.309D-06-0.808D-05 0.727D-04-0.283D-03 0.971D-03
 Coeff:     -0.731D-03-0.178D-01 0.131D+00-0.436D+00 0.132D+01
 Gap=     0.462 Goal=   None    Shift=    0.000
 RMSDP=4.06D-09 MaxDP=1.25D-08 DE=-8.53D-14 OVMax= 1.88D-08

 Cycle  12  Pass 2  IDiag  1:
 SCF Done:  E(RPM6) =  0.108766981522     A.U. after   12 cycles
            NFock= 11  Conv=0.41D-08     -V/T= 1.0027
 KE=-4.008569252937D+01 PE=-4.355239869594D+01 EE= 3.406569813299D+01
 Leave Link  502 at Thu Aug 20 16:13:02 2015, MaxMem=    26214400 cpu:               0.0 elap:               0.0
 (Enter /home/lijunj/Gauss/gdv-h37p/gdv/l601.exe)
 Copying SCF densities to generalized density rwf, IOpCl= 0 IROHF=0.

 **********************************************************************

            Population analysis using the SCF density.

 **********************************************************************

 Orbital symmetries:
       Occupied  (A) (A) (A) (A) (A) (A) (A) (A)
       Virtual   (A) (A) (A) (A) (A)
 The electronic state is 1-A.
 Alpha  occ. eigenvalues --   -1.41559  -1.30138  -0.98970  -0.98374  -0.89768
 Alpha  occ. eigenvalues --   -0.76941  -0.74007  -0.65578
 Alpha virt. eigenvalues --   -0.19364  -0.07655  -0.06855  -0.01127   0.02340
          Condensed to atoms (all electrons):
               1          2          3          4          5          6
     1  O    6.362104   0.000000   0.000000   0.000000   0.000000   0.000000
     2  H    0.000000   0.576705   0.000000   0.000000   0.000000   0.000000
     3  H    0.000000   0.000000   0.578597   0.000000   0.000000   0.000000
     4  H    0.000000   0.000000   0.000000   0.578989   0.000000   0.000000
     5  O    0.000000   0.000000   0.000000   0.000000   6.645623   0.000000
     6  H    0.000000   0.000000   0.000000   0.000000   0.000000   0.628170
     7  H    0.000000   0.000000   0.000000   0.000000   0.000000   0.000000
               7
     1  O    0.000000
     2  H    0.000000
     3  H    0.000000
     4  H    0.000000
     5  O    0.000000
     6  H    0.000000
     7  H    0.629811
 Mulliken charges:
               1
     1  O   -0.362104
     2  H    0.423295
     3  H    0.421403
     4  H    0.421011
     5  O   -0.645623
     6  H    0.371830
     7  H    0.370189
 Sum of Mulliken charges =   1.00000
 Mulliken charges with hydrogens summed into heavy atoms:
               1
     1  O    0.903604
     5  O    0.096396
 Charge=              1.0000 electrons
 Dipole moment (field-independent basis, Debye):
    X=              2.4242    Y=              1.0745    Z=              0.6740  Tot=              2.7359
 N-N= 4.968116007384D+01 E-N=-4.355239870865D+01  KE=-4.008569252937D+01
 Leave Link  601 at Thu Aug 20 16:13:02 2015, MaxMem=    26214400 cpu:               0.0 elap:               0.0
 (Enter /home/lijunj/Gauss/gdv-h37p/gdv/l701.exe)
 Compute integral first derivatives.
 ... and contract with generalized density number  0.
 Leave Link  701 at Thu Aug 20 16:13:02 2015, MaxMem=    26214400 cpu:               0.0 elap:               0.0
 (Enter /home/lijunj/Gauss/gdv-h37p/gdv/l702.exe)
 L702 exits ... SP integral derivatives will be done elsewhere.
 Leave Link  702 at Thu Aug 20 16:13:02 2015, MaxMem=    26214400 cpu:               0.0 elap:               0.0
 (Enter /home/lijunj/Gauss/gdv-h37p/gdv/l703.exe)
 Compute integral first derivatives, UseDBF=F ICtDFT=           0.
 Integral derivatives from FoFJK, PRISM(SPDF).
 Calling FoFJK, ICntrl=      2127 FMM=F ISym2X=0 I1Cent= 0 IOpClX= 0 NMat=1 NMatS=1 NMatT=0.
 FoFJK:  IHMeth=40 ICntrl=    2127 DoSepK=F KAlg= 0 I1Cent=           0 FoldK=F
 IRaf=         0 NMat=       1 IRICut=       1 DoRegI=T DoRafI=F ISym2E= 0.
 FoFCou: FMM=F IPFlag=           0 FMFlag=      100000 FMFlg1=         800
         NFxFlg=           0 DoJE=F BraDBF=F KetDBF=F FulRan=T
         wScrn=  0.000000 ICntrl=      2127 IOpCl=  0 I1Cent=           0 NGrid=           0
         NMat0=    1 NMatS0=      1 NMatT0=    0 NMatD0=    1 NMtDS0=    0 NMtDT0=    0
 Symmetry not used in FoFCou.
 Leave Link  703 at Thu Aug 20 16:13:02 2015, MaxMem=    26214400 cpu:               0.0 elap:               0.0
 (Enter /home/lijunj/Gauss/gdv-h37p/gdv/l716.exe)
 Dipole        = 9.53741773D-01 4.22731276D-01 2.65153605D-01
 ***** Axes restored to original set *****
 -------------------------------------------------------------------
 Center     Atomic                   Forces (Hartrees/Bohr)
 Number     Number              X              Y              Z
 -------------------------------------------------------------------
      1        8           0.000942649   -0.029106822   -0.015338597
      2        1           0.015469159    0.007503057    0.002964793
      3        1           0.000553109    0.021551429    0.010583146
      4        1          -0.016404767    0.006990339    0.002817127
      5        8          -0.000229589    0.001125569    0.000518173
      6        1           0.000347780   -0.004157086    0.001727029
      7        1          -0.000678340   -0.003906488   -0.003271670
 -------------------------------------------------------------------
 Cartesian Forces:  Max     0.029106822 RMS     0.010553350
 Z-matrix is all fixed cartesians, so copy forces.
 Force constants in Cartesian coordinates: 
                1             2             3             4             5 
      1  0.788071D+00
      2  0.437657D-04  0.788037D+00
      3 -0.110276D-02 -0.483633D-03  0.157612D+00
      4 -0.337286D+00 -0.136718D+00  0.794138D-01  0.333648D+00
      5 -0.136728D+00 -0.187826D+00  0.470690D-01  0.153379D+00  0.165962D+00
      6  0.105572D+00  0.625784D-01 -0.529342D-01 -0.826686D-01 -0.490042D-01
      7 -0.106763D+00  0.342073D-02  0.115168D-02  0.162144D-01 -0.338997D-01
      8  0.346639D-02 -0.418676D+00 -0.913395D-01  0.150256D-02 -0.346744D-02
      9  0.150311D-02 -0.121748D+00 -0.523838D-01 -0.570381D-02  0.133330D-01
     10 -0.344022D+00  0.133253D+00 -0.794627D-01 -0.125764D-01  0.172485D-01
     11  0.133218D+00 -0.181535D+00  0.447542D-01 -0.181636D-01  0.253310D-01
     12 -0.105973D+00  0.596531D-01 -0.522942D-01  0.895868D-02 -0.113977D-01
     13  0.000000D+00  0.000000D+00  0.000000D+00  0.000000D+00  0.000000D+00
     14  0.000000D+00  0.000000D+00  0.000000D+00  0.000000D+00  0.000000D+00
     15  0.000000D+00  0.000000D+00  0.000000D+00  0.000000D+00  0.000000D+00
     16  0.000000D+00  0.000000D+00  0.000000D+00  0.000000D+00  0.000000D+00
     17  0.000000D+00  0.000000D+00  0.000000D+00  0.000000D+00  0.000000D+00
     18  0.000000D+00  0.000000D+00  0.000000D+00  0.000000D+00  0.000000D+00
     19  0.000000D+00  0.000000D+00  0.000000D+00  0.000000D+00  0.000000D+00
     20  0.000000D+00  0.000000D+00  0.000000D+00  0.000000D+00  0.000000D+00
     21  0.000000D+00  0.000000D+00  0.000000D+00  0.000000D+00  0.000000D+00
                6             7             8             9            10 
      6  0.367651D-01
      7 -0.142803D-01  0.750284D-01
      8 -0.203335D-02 -0.389984D-02  0.424848D+00
      9  0.808978D-02 -0.116808D-02  0.950702D-01  0.362713D-01
     10 -0.862344D-02  0.155200D-01 -0.106911D-02  0.536878D-02  0.341078D+00
     11 -0.115408D-01  0.343789D-01 -0.270445D-02  0.133447D-01 -0.149433D+00
     12  0.807927D-02  0.142967D-01 -0.169735D-02  0.802269D-02  0.827174D-01
     13  0.000000D+00  0.000000D+00  0.000000D+00  0.000000D+00  0.000000D+00
     14  0.000000D+00  0.000000D+00  0.000000D+00  0.000000D+00  0.000000D+00
     15  0.000000D+00  0.000000D+00  0.000000D+00  0.000000D+00  0.000000D+00
     16  0.000000D+00  0.000000D+00  0.000000D+00  0.000000D+00  0.000000D+00
     17  0.000000D+00  0.000000D+00  0.000000D+00  0.000000D+00  0.000000D+00
     18  0.000000D+00  0.000000D+00  0.000000D+00  0.000000D+00  0.000000D+00
     19  0.000000D+00  0.000000D+00  0.000000D+00  0.000000D+00  0.000000D+00
     20  0.000000D+00  0.000000D+00  0.000000D+00  0.000000D+00  0.000000D+00
     21  0.000000D+00  0.000000D+00  0.000000D+00  0.000000D+00  0.000000D+00
               11            12            13            14            15 
     11  0.158908D+00
     12 -0.465581D-01  0.361922D-01
     13  0.000000D+00  0.000000D+00  0.521178D-01
     14  0.000000D+00  0.000000D+00  0.805311D-01  0.486949D+00
     15  0.000000D+00  0.000000D+00  0.152817D+00 -0.445046D-01  0.665325D+00
     16  0.000000D+00  0.000000D+00 -0.597088D-02 -0.282690D-02 -0.224612D-01
     17  0.000000D+00  0.000000D+00  0.773886D-02 -0.299050D+00  0.263451D+00
     18  0.000000D+00  0.000000D+00 -0.306405D-01  0.219833D+00 -0.296672D+00
     19  0.000000D+00  0.000000D+00 -0.461469D-01 -0.777042D-01 -0.130355D+00
     20  0.000000D+00  0.000000D+00 -0.882699D-01 -0.187899D+00 -0.218947D+00
     21  0.000000D+00  0.000000D+00 -0.122176D+00 -0.175328D+00 -0.368653D+00
               16            17            18            19            20 
     16  0.544248D-02
     17 -0.905278D-02  0.269510D+00
     18  0.294762D-01 -0.246008D+00  0.312128D+00
     19  0.528407D-03  0.131392D-02  0.116428D-02  0.456185D-01
     20  0.118797D-01  0.295397D-01  0.261754D-01  0.763902D-01  0.158359D+00
     21 -0.701498D-02 -0.174432D-01 -0.154566D-01  0.129191D+00  0.192771D+00
               21 
     21  0.384110D+00
 Leave Link  716 at Thu Aug 20 16:13:02 2015, MaxMem=    26214400 cpu:               0.0 elap:               0.0
 (Enter /home/lijunj/Gauss/gdv-h37p/gdv/l103.exe)

 GradGradGradGradGradGradGradGradGradGradGradGradGradGradGradGradGradGrad
 Berny optimization.
 Search for a local minimum.
 Step number   1 out of a maximum of    2
 All quantities printed in internal units (Hartrees-Bohrs-Radians)
 Second derivative matrix not updated -- first step.
 ITU=  0
     Eigenvalues ---    0.00000   0.00000   0.00000   0.00000   0.00000
     Eigenvalues ---    0.00000   0.09147   0.15345   0.16134   0.16376
     Eigenvalues ---    0.50944   0.89044   1.01121   1.08356   1.11544
 Eigenvalue     1 is  -1.67D-15 should be greater than     0.000000 Eigenvector:
                          Z4        X6        Y6        Y7        X7
   1                    0.46995  -0.45975   0.40249  -0.34131   0.28474
                          Z6        Z3        Z2        Z5        X3
   1                    0.24761  -0.20724  -0.18944  -0.15171  -0.13552
 Eigenvalue     2 is  -9.99D-16 should be greater than     0.000000 Eigenvector:
                          Y7        X7        X5        Y2        Y6
   1                    0.48345  -0.37687   0.33232  -0.29398   0.28136
                          Y3        X6        Y5        Y1        Y4
   1                   -0.25807  -0.25694   0.25537  -0.25212  -0.22073
 Eigenvalue     3 is  -4.44D-16 should be greater than     0.000000 Eigenvector:
                          X7        Y7        X3        Y6        Y2
   1                    0.42996   0.42563  -0.32928  -0.29785  -0.27957
                          Z5        Z3        Z4        Z2        Y4
   1                    0.26937  -0.24235   0.23447  -0.23022   0.16647
 Eigenvalue     4 is  -2.22D-16 should be greater than     0.000000 Eigenvector:
                          X6        Y2        Y6        X3        Y7
   1                    0.48220  -0.39915   0.38153  -0.38073  -0.27850
                          Y4        Z4        X2        Z3        X4
   1                    0.21715  -0.16821   0.15679   0.14984   0.14917
 Eigenvalue     5 is   2.22D-16 Eigenvector:
                          Y4        X5        X3        X7        Y5
   1                    0.46202   0.42834  -0.40111  -0.35623  -0.30111
                          Y6        Y1        Y3        X6        X1
   1                   -0.30099   0.19539   0.19217  -0.17319  -0.09508
 Eigenvalue     6 is   9.28D-12 Eigenvector:
                          Z3        Z2        X6        X7        Z7
   1                    0.79103  -0.46794  -0.19474   0.19021  -0.14919
                          Z4        Y1        Y2        Z6        Z1
   1                   -0.10794   0.09792  -0.09502  -0.07254   0.07152
 Quadratic step=5.517D+01 exceeds max=3.000D-01 adjusted using Lamda=-2.243D-02.
 Angle between NR and scaled steps=  35.09 degrees.
 Angle between quadratic step and forces=  63.86 degrees.
 Linear search not attempted -- first point.
 B after Tr=     0.000444   -0.004522   -0.028989
         Rot=    0.999996   -0.002759    0.000298   -0.001126 Ang=  -0.34 deg.
 Variable       Old X    -DE/DX   Delta X   Delta X   Delta X     New X
                                 (Linear)    (Quad)   (Total)
    X1        0.00022   0.00094   0.00000   0.00452   0.00529   0.00551
    Y1       -0.00182  -0.02911   0.00000   0.06852   0.06844   0.06663
    Z1       -0.73050  -0.01534   0.00000  -0.07260  -0.10121  -0.83171
    X2       -1.61035   0.01547   0.00000   0.06217   0.06467  -1.54568
    Y2       -0.95689   0.00750   0.00000   0.10225   0.09546  -0.86143
    Z2       -0.29198   0.00296   0.00000   0.07566   0.04103  -0.25095
    X3       -0.02079   0.00055   0.00000   0.02915   0.02532   0.00453
    Y3        1.87186   0.02155   0.00000   0.08060   0.07722   1.94908
    Z3       -0.29665   0.01058   0.00000   0.08758   0.06938  -0.22727
    X4        1.63409  -0.01640   0.00000  -0.07502  -0.07252   1.56157
    Y4       -0.91950   0.00699   0.00000   0.06404   0.06429  -0.85521
    Z4       -0.29744   0.00282   0.00000   0.07104   0.03827  -0.25917
    X5       -0.18722  -0.00023   0.00000  -0.02741  -0.03752  -0.22473
    Y5        4.72158   0.00113   0.00000  -0.08798  -0.09418   4.62739
    Z5        0.20719   0.00052   0.00000  -0.00541  -0.00896   0.19823
    X6       -0.28251   0.00035   0.00000   0.01792   0.00587  -0.27664
    Y6        5.95360  -0.00416   0.00000  -0.10466  -0.10350   5.85011
    Z6       -1.13994   0.00173   0.00000  -0.01701  -0.01386  -1.15380
    X7        0.34337  -0.00068   0.00000   0.02182   0.00887   0.35224
    Y7        5.59304  -0.00391   0.00000  -0.09457  -0.10773   5.48531
    Z7        1.72297  -0.00327   0.00000  -0.02619  -0.02464   1.69832
         Item               Value     Threshold  Converged?
 Maximum Force            0.029107     0.000450     NO 
 RMS     Force            0.010553     0.000300     NO 
 Maximum Displacement     0.107732     0.001800     NO 
 RMS     Displacement     0.063918     0.001200     NO 
 Predicted change in Energy=-4.207658D-03
 GradGradGradGradGradGradGradGradGradGradGradGradGradGradGradGradGradGrad

 Leave Link  103 at Thu Aug 20 16:13:02 2015, MaxMem=    26214400 cpu:               0.0 elap:               0.0
 (Enter /home/lijunj/Gauss/gdv-h37p/gdv/l9999.exe)

 Test job not archived.
 1\1\GINC-BL-CHEM-IYENGAR11\Force\RPM6\ZDO\H5O2(1+)\LIJUNJ\20-Aug-2015\
 0\\#p pm6 iop(2/29=1) force\\title\\1,1\O,0.000116,-0.000961,-0.386565
 \H,-0.852163,-0.506364,-0.154508\H,-0.011003,0.990547,-0.156979\H,0.86
 4723,-0.486579,-0.1574\O,-0.099071,2.49855,0.109641\H,-0.149496,3.1505
 12,-0.603231\H,0.181701,2.959711,0.911754\\Version=AM64L-GDVRevH.37+\S
 tate=1-A\HF=0.108767\RMSD=4.060e-09\RMSF=1.055e-02\Dipole=0.2446336,-1
 .0075589,0.2891557\PG=C01 [X(H5O2)]\\@


 IBM COMPATIBILITY IS LIKE PREGNANCY. YOU ARE OR
 OR YOU ARE NOT. -- ADAM OSBORNE
 Job cpu time:       0 days  0 hours  0 minutes  0.8 seconds.
 Elapsed time:       0 days  0 hours  0 minutes  0.5 seconds.
 File lengths (MBytes):  RWF=      5 Int=      0 D2E=      0 Chk=      2 Scr=      1
 Normal termination of Gaussian DV at Thu Aug 20 16:13:02 2015.
