 Entering Gaussian System, Link 0=gdv
 Initial command:
 /home/lijunj/Gauss/gdv-h37p/gdv/l1.exe "/scratch/lijunj/Gau-11397.inp" -scrdir="/scratch/lijunj/"
 Entering Link 1 = /home/lijunj/Gauss/gdv-h37p/gdv/l1.exe PID=     11398.
  
 Copyright (c) 1988,1990,1992,1993,1995,1998,2003,2009,2014,
            Gaussian, Inc.  All Rights Reserved.
  
 This is the private, development version of
 the Gaussian(R) DV system of programs. It is based on
 the Gaussian(R) 09 system (copyright 2009, Gaussian, Inc.),
 the Gaussian(R) 03 system (copyright 2003, Gaussian, Inc.),
 the Gaussian(R) 98 system (copyright 1998, Gaussian, Inc.),
 the Gaussian(R) 94 system (copyright 1995, Gaussian, Inc.),
 the Gaussian 92(TM) system (copyright 1992, Gaussian, Inc.),
 the Gaussian 90(TM) system (copyright 1990, Gaussian, Inc.),
 the Gaussian 88(TM) system (copyright 1988, Gaussian, Inc.),
 the Gaussian 86(TM) system (copyright 1986, Carnegie Mellon
 University), and the Gaussian 82(TM) system (copyright 1983,
 Carnegie Mellon University). Gaussian is a federally registered
 trademark of Gaussian, Inc.
  
 This software contains proprietary and confidential information,
 including trade secrets, belonging to Gaussian, Inc.
  
 This software is provided under written license and may be
 used, copied, transmitted, or stored only in accord with that
 written license.
  
 The following legend is applicable only to US Government
 contracts under FAR:
  
                    RESTRICTED RIGHTS LEGEND
  
 Use, reproduction and disclosure by the US Government is
 subject to restrictions as set forth in subparagraphs (a)
 and (c) of the Commercial Computer Software - Restricted
 Rights clause in FAR 52.227-19.
  
 Gaussian, Inc.
 340 Quinnipiac St., Bldg. 40, Wallingford CT 06492
  
  
 ---------------------------------------------------------------
 Warning -- This program may not be used in any manner that
 competes with the business of Gaussian, Inc. or will provide
 assistance to any competitor of Gaussian, Inc.  The licensee
 of this program is prohibited from giving any competitor of
 Gaussian, Inc. access to this program.  By using this program,
 the user acknowledges that Gaussian, Inc. is engaged in the
 business of creating and licensing software in the field of
 computational chemistry and represents and warrants to the
 licensee that it is not a competitor of Gaussian, Inc. and that
 it will not use this program in any manner prohibited above.
 ---------------------------------------------------------------
  

 Cite this work as:
 Gaussian Development Version, Revision H.37+,
 M. J. Frisch, G. W. Trucks, H. B. Schlegel, G. E. Scuseria, 
 M. A. Robb, J. R. Cheeseman, G. Scalmani, V. Barone, B. Mennucci, 
 G. A. Petersson, H. Nakatsuji, M. Caricato, X. Li, H. P. Hratchian, 
 A. F. Izmaylov, J. Bloino, B. G. Janesko, F. Lipparini, G. Zheng, 
 J. L. Sonnenberg, W. Liang, M. Hada, M. Ehara, K. Toyota, R. Fukuda, 
 J. Hasegawa, M. Ishida, T. Nakajima, Y. Honda, O. Kitao, H. Nakai, 
 T. Vreven, J. A. Montgomery, Jr., J. E. Peralta, F. Ogliaro, 
 M. Bearpark, J. J. Heyd, E. Brothers, K. N. Kudin, V. N. Staroverov, 
 T. Keith, R. Kobayashi, J. Normand, K. Raghavachari, A. Rendell, 
 J. C. Burant, S. S. Iyengar, J. Tomasi, M. Cossi, N. Rega, 
 J. M. Millam, M. Klene, J. E. Knox, J. B. Cross, V. Bakken, 
 C. Adamo, J. Jaramillo, R. Gomperts, R. E. Stratmann, O. Yazyev, 
 A. J. Austin, R. Cammi, C. Pomelli, J. W. Ochterski, R. L. Martin, 
 K. Morokuma, V. G. Zakrzewski, G. A. Voth, P. Salvador, 
 J. J. Dannenberg, S. Dapprich, P. V. Parandekar, N. J. Mayhall, 
 A. D. Daniels, O. Farkas, J. B. Foresman, J. V. Ortiz, 
 J. Cioslowski, and D. J. Fox, Gaussian, Inc., Wallingford CT, 2010.
 
 *******************************************
 Gaussian DV:  AM64L-GDVRevH.37+ 17-Apr-2014
                 20-Aug-2015 
 *******************************************
 %mem=200MB
 %chk=FHF.chk
 %nproc=1
 Will use up to    1 processors via shared memory.
 --------------------------------------
 #p b3lyp/6-31+g(d,p) iop(2/29=1) force
 --------------------------------------
 1/10=7,30=1,38=1/1,3;
 2/12=2,17=6,18=5,29=1,40=1/2;
 3/5=1,6=6,7=111,11=2,16=1,25=1,30=1,71=1,74=-5/1,2,3;
 4//1;
 5/5=2,38=5/2;
 6/7=2,8=2,9=2,10=2,28=1/1;
 7/29=1/1,2,3,16;
 1/10=7,30=1/3;
 99//99;
 Leave Link    1 at Thu Aug 20 16:12:57 2015, MaxMem=    26214400 cpu:               0.0 elap:               0.0
 (Enter /home/lijunj/Gauss/gdv-h37p/gdv/l101.exe)
 -----
 title
 -----
 Symbolic Z-matrix:
 Charge =  1 Multiplicity = 1
 O                     0.00012  -0.00096  -0.38657 
 H                    -0.85216  -0.50636  -0.15451 
 H                    -0.011     0.99055  -0.15698 
 H                     0.86472  -0.48658  -0.1574 
 O                    -0.09907   2.49855   0.10964 
 H                    -0.1495    3.15051  -0.60323 
 H                     0.1817    2.95971   0.91175 
 
 ITRead=  0  0  0  0  0  0  0
 MicOpt= -1 -1 -1 -1 -1 -1 -1
 NAtoms=      7 NQM=        7 NQMF=       0 NMMI=      0 NMMIF=      0
                NMic=       0 NMicF=      0.
                    Isotopes and Nuclear Properties:
 (Nuclear quadrupole moments (NQMom) in fm**2, nuclear magnetic moments (NMagM)
  in nuclear magnetons)

  Atom         1           2           3           4           5           6           7
 IAtWgt=          16           1           1           1          16           1           1
 AtmWgt=  15.9949146   1.0078250   1.0078250   1.0078250  15.9949146   1.0078250   1.0078250
 NucSpn=           0           1           1           1           0           1           1
 AtZEff=   0.0000000   0.0000000   0.0000000   0.0000000   0.0000000   0.0000000   0.0000000
 NQMom=    0.0000000   0.0000000   0.0000000   0.0000000   0.0000000   0.0000000   0.0000000
 NMagM=    0.0000000   2.7928460   2.7928460   2.7928460   0.0000000   2.7928460   2.7928460
 AtZNuc=   8.0000000   1.0000000   1.0000000   1.0000000   8.0000000   1.0000000   1.0000000
 Leave Link  101 at Thu Aug 20 16:12:57 2015, MaxMem=    26214400 cpu:               0.1 elap:               0.1
 (Enter /home/lijunj/Gauss/gdv-h37p/gdv/l103.exe)

 GradGradGradGradGradGradGradGradGradGradGradGradGradGradGradGradGradGrad
 Berny optimization.
 Initialization pass.
 Trust Radius=3.00D-01 FncErr=1.00D-07 GrdErr=1.00D-07 EigMax=2.50D+02 EigMin=1.00D-04
 Number of steps in this run=      2 maximum allowed number of steps=      2.
 GradGradGradGradGradGradGradGradGradGradGradGradGradGradGradGradGradGrad

 Leave Link  103 at Thu Aug 20 16:12:57 2015, MaxMem=    26214400 cpu:               0.0 elap:               0.0
 (Enter /home/lijunj/Gauss/gdv-h37p/gdv/l202.exe)
                          Input orientation:                          
 ---------------------------------------------------------------------
 Center     Atomic      Atomic             Coordinates (Angstroms)
 Number     Number       Type             X           Y           Z
 ---------------------------------------------------------------------
      1          8           0        0.000116   -0.000961   -0.386565
      2          1           0       -0.852163   -0.506364   -0.154508
      3          1           0       -0.011003    0.990547   -0.156979
      4          1           0        0.864723   -0.486579   -0.157400
      5          8           0       -0.099071    2.498550    0.109641
      6          1           0       -0.149496    3.150512   -0.603231
      7          1           0        0.181701    2.959711    0.911754
 ---------------------------------------------------------------------
                    Distance matrix (angstroms):
                    1          2          3          4          5
     1  O    0.000000
     2  H    1.017675   0.000000
     3  H    1.017802   1.717061   0.000000
     4  H    1.017785   1.717002   1.717206   0.000000
     5  O    2.550218   3.109088   1.533922   3.148207   0.000000
     6  H    3.162453   3.750711   2.209925   3.802083   0.967359
     7  H    3.237929   3.770871   2.248762   3.672400   0.966896
                    6          7
     6  H    0.000000
     7  H    1.562458   0.000000
 Stoichiometry    H5O2(1+)
 Framework group  C1[X(H5O2)]
 Deg. of freedom    15
 Full point group                 C1      NOp   1
 Largest Abelian subgroup         C1      NOp   1
 Largest concise Abelian subgroup C1      NOp   1
                         Standard orientation:                         
 ---------------------------------------------------------------------
 Center     Atomic      Atomic             Coordinates (Angstroms)
 Number     Number       Type             X           Y           Z
 ---------------------------------------------------------------------
      1          8           0        1.271593   -0.033328   -0.061175
      2          1           0        1.711126   -0.605182    0.656778
      3          1           0        0.256096    0.014368   -0.012061
      4          1           0        1.735851    0.852433   -0.250330
      5          8           0       -1.276910   -0.016713    0.030855
      6          1           0       -1.806620   -0.472950   -0.637754
      7          1           0       -1.853923    0.611659    0.485928
 ---------------------------------------------------------------------
 Rotational constants (GHZ):    172.6311687      7.6608023      7.6013437
 Leave Link  202 at Thu Aug 20 16:12:57 2015, MaxMem=    26214400 cpu:               0.0 elap:               0.0
 (Enter /home/lijunj/Gauss/gdv-h37p/gdv/l301.exe)
 Standard basis: 6-31+G(d,p) (6D, 7F)
 Ernie: Thresh=  0.10000D-02 Tol=  0.10000D-05 Strict=F.
 There are    63 symmetry adapted cartesian basis functions of A   symmetry.
 There are    63 symmetry adapted basis functions of A   symmetry.
    63 basis functions,    99 primitive gaussians,    63 cartesian basis functions
    10 alpha electrons       10 beta electrons
       nuclear repulsion energy        44.9284975047 Hartrees.
 IExCor=  402 DFT=T Ex+Corr=B3LYP ExCW=0 ScaHFX=  0.200000
 ScaDFX=  0.800000  0.720000  1.000000  0.810000 ScalE2=  1.000000  1.000000
 IRadAn=      0 IRanWt=     -1 IRanGd=            0 ICorTp=0 IEmpDi=  4
 NAtoms=    7 NActive=    7 NUniq=    7 SFac= 1.00D+00 NAtFMM=   60 NAOKFM=F Big=F
 Integral buffers will be    131072 words long.
 Raffenetti 2 integral format.
 Two-electron integral symmetry is turned on.
 Leave Link  301 at Thu Aug 20 16:12:57 2015, MaxMem=    26214400 cpu:               0.0 elap:               0.0
 (Enter /home/lijunj/Gauss/gdv-h37p/gdv/l302.exe)
 NPDir=0 NMtPBC=     1 NCelOv=     1 NCel=       1 NClECP=     1 NCelD=      1
         NCelK=      1 NCelE2=     1 NClLst=     1 CellRange=     0.0.
 One-electron integrals computed using PRISM.
 One-electron integral symmetry used in STVInt
 NBasis=    63 RedAO= T EigKep=  7.24D-03  NBF=    63
 NBsUse=    63 1.00D-06 EigRej= -1.00D+00 NBFU=    63
 Precomputing XC quadrature grid using
 IXCGrd= 4 IRadAn=           0 IRanWt=          -1 IRanGd=           0 AccXCQ= 0.00D+00.
 Generated NRdTot=       0 NPtTot=           0 NUsed=           0 NTot=          32
 NSgBfM=    63    63    63    63    63 MxSgAt=     7 MxSgA2=     7.
 Leave Link  302 at Thu Aug 20 16:12:57 2015, MaxMem=    26214400 cpu:               0.1 elap:               0.2
 (Enter /home/lijunj/Gauss/gdv-h37p/gdv/l303.exe)
 DipDrv:  MaxL=1.
 Leave Link  303 at Thu Aug 20 16:12:57 2015, MaxMem=    26214400 cpu:               0.0 elap:               0.0
 (Enter /home/lijunj/Gauss/gdv-h37p/gdv/l401.exe)
 ExpMin= 8.45D-02 ExpMax= 5.48D+03 ExpMxC= 8.25D+02 IAcc=2 IRadAn=         4 AccDes= 0.00D+00
 Harris functional with IExCor=  402 and IRadAn=       4 diagonalized for initial guess.
 HarFok:  IExCor=  402 AccDes= 0.00D+00 IRadAn=         4 IDoV= 1 UseB2=F ITyADJ=14
 ICtDFT=  3500011 ScaDFX=  1.000000  1.000000  1.000000  1.000000
 FoFCou: FMM=F IPFlag=           0 FMFlag=      100000 FMFlg1=           0
         NFxFlg=           0 DoJE=T BraDBF=F KetDBF=T FulRan=T
         wScrn=  0.000000 ICntrl=       500 IOpCl=  0 I1Cent=   200000004 NGrid=           0
         NMat0=    1 NMatS0=      1 NMatT0=    0 NMatD0=    1 NMtDS0=    0 NMtDT0=    0
 Petite list used in FoFCou.
 Harris En= -153.286025028776    
 JPrj=0 DoOrth=F DoCkMO=F.
 Leave Link  401 at Thu Aug 20 16:12:57 2015, MaxMem=    26214400 cpu:               0.4 elap:               0.4
 (Enter /home/lijunj/Gauss/gdv-h37p/gdv/l502.exe)
 Keep R1 ints in memory in canonical form, NReq=2914989.
 FoFCou: FMM=F IPFlag=           0 FMFlag=           0 FMFlg1=           0
         NFxFlg=           0 DoJE=F BraDBF=F KetDBF=F FulRan=T
         wScrn=  0.000000 ICntrl=       600 IOpCl=  0 I1Cent=           0 NGrid=           0
         NMat0=    1 NMatS0=   2016 NMatT0=    0 NMatD0=    1 NMtDS0=    0 NMtDT0=    0
 Symmetry not used in FoFCou.
 Two-electron integral symmetry not used.
 Closed shell SCF:
 Using DIIS extrapolation, IDIIS=  1040.
 NGot=    26214400 LenX=    24172376 LenY=    24167966
 Requested convergence on RMS density matrix=1.00D-08 within 128 cycles.
 Requested convergence on MAX density matrix=1.00D-06.
 Requested convergence on             energy=1.00D-06.
 No special actions if energy rises.
 Integral accuracy reduced to 1.0D-05 until final iterations.

 Cycle   1  Pass 0  IDiag  1:
 E= -153.127620363455    
 DIIS: error= 3.59D-02 at cycle   1 NSaved=   1.
 NSaved= 1 IEnMin= 1 EnMin= -153.127620363455     IErMin= 1 ErrMin= 3.59D-02
 ErrMax= 3.59D-02  0.00D+00 EMaxC= 1.00D-01 BMatC= 9.52D-02 BMatP= 9.52D-02
 IDIUse=3 WtCom= 6.41D-01 WtEn= 3.59D-01
 Coeff-Com:  0.100D+01
 Coeff-En:   0.100D+01
 Coeff:      0.100D+01
 Gap=     0.205 Goal=   None    Shift=    0.000
 GapD=    0.205 DampG=1.000 DampE=0.500 DampFc=0.5000 IDamp=-1.
 Damping current iteration by 5.00D-01
 RMSDP=6.76D-03 MaxDP=1.34D-01              OVMax= 1.59D-01

 Cycle   2  Pass 0  IDiag  1:
 E= -153.146675213702     Delta-E=       -0.019054850246 Rises=F Damp=T
 DIIS: error= 1.20D-02 at cycle   2 NSaved=   2.
 NSaved= 2 IEnMin= 2 EnMin= -153.146675213702     IErMin= 2 ErrMin= 1.20D-02
 ErrMax= 1.20D-02  0.00D+00 EMaxC= 1.00D-01 BMatC= 7.56D-03 BMatP= 9.52D-02
 IDIUse=3 WtCom= 8.80D-01 WtEn= 1.20D-01
 Coeff-Com:  0.192D+00 0.808D+00
 Coeff-En:   0.342D+00 0.658D+00
 Coeff:      0.210D+00 0.790D+00
 Gap=     0.320 Goal=   None    Shift=    0.000
 RMSDP=1.15D-03 MaxDP=1.45D-02 DE=-1.91D-02 OVMax= 1.07D-01

 Cycle   3  Pass 0  IDiag  1:
 E= -153.192722317235     Delta-E=       -0.046047103533 Rises=F Damp=F
 DIIS: error= 2.23D-03 at cycle   3 NSaved=   3.
 NSaved= 3 IEnMin= 3 EnMin= -153.192722317235     IErMin= 3 ErrMin= 2.23D-03
 ErrMax= 2.23D-03  0.00D+00 EMaxC= 1.00D-01 BMatC= 4.35D-04 BMatP= 7.56D-03
 IDIUse=3 WtCom= 9.78D-01 WtEn= 2.23D-02
 Coeff-Com:  0.341D-01 0.190D+00 0.776D+00
 Coeff-En:   0.000D+00 0.000D+00 0.100D+01
 Coeff:      0.334D-01 0.186D+00 0.781D+00
 Gap=     0.321 Goal=   None    Shift=    0.000
 RMSDP=3.29D-04 MaxDP=6.40D-03 DE=-4.60D-02 OVMax= 6.76D-03

 Cycle   4  Pass 0  IDiag  1:
 E= -153.192789737033     Delta-E=       -0.000067419798 Rises=F Damp=F
 DIIS: error= 2.26D-03 at cycle   4 NSaved=   4.
 NSaved= 4 IEnMin= 4 EnMin= -153.192789737033     IErMin= 3 ErrMin= 2.23D-03
 ErrMax= 2.26D-03  0.00D+00 EMaxC= 1.00D-01 BMatC= 3.50D-04 BMatP= 4.35D-04
 IDIUse=3 WtCom= 9.77D-01 WtEn= 2.26D-02
 Coeff-Com: -0.340D-02 0.221D-01 0.476D+00 0.505D+00
 Coeff-En:   0.000D+00 0.000D+00 0.446D+00 0.554D+00
 Coeff:     -0.333D-02 0.216D-01 0.476D+00 0.506D+00
 Gap=     0.325 Goal=   None    Shift=    0.000
 RMSDP=1.54D-04 MaxDP=3.66D-03 DE=-6.74D-05 OVMax= 3.85D-03

 Cycle   5  Pass 0  IDiag  1:
 E= -153.193030193810     Delta-E=       -0.000240456776 Rises=F Damp=F
 DIIS: error= 1.43D-04 at cycle   5 NSaved=   5.
 NSaved= 5 IEnMin= 5 EnMin= -153.193030193810     IErMin= 5 ErrMin= 1.43D-04
 ErrMax= 1.43D-04  0.00D+00 EMaxC= 1.00D-01 BMatC= 1.47D-06 BMatP= 3.50D-04
 IDIUse=3 WtCom= 9.99D-01 WtEn= 1.43D-03
 Coeff-Com: -0.128D-02-0.294D-03 0.104D+00 0.139D+00 0.758D+00
 Coeff-En:   0.000D+00 0.000D+00 0.000D+00 0.000D+00 0.100D+01
 Coeff:     -0.127D-02-0.294D-03 0.104D+00 0.139D+00 0.759D+00
 Gap=     0.325 Goal=   None    Shift=    0.000
 RMSDP=1.43D-05 MaxDP=1.74D-04 DE=-2.40D-04 OVMax= 2.93D-04

 Cycle   6  Pass 0  IDiag  1:
 E= -153.193031271915     Delta-E=       -0.000001078105 Rises=F Damp=F
 DIIS: error= 1.51D-05 at cycle   6 NSaved=   6.
 NSaved= 6 IEnMin= 6 EnMin= -153.193031271915     IErMin= 6 ErrMin= 1.51D-05
 ErrMax= 1.51D-05  0.00D+00 EMaxC= 1.00D-01 BMatC= 9.73D-09 BMatP= 1.47D-06
 IDIUse=1 WtCom= 1.00D+00 WtEn= 0.00D+00
 Coeff-Com:  0.172D-03-0.471D-03 0.101D-02 0.283D-02 0.442D-01 0.952D+00
 Coeff:      0.172D-03-0.471D-03 0.101D-02 0.283D-02 0.442D-01 0.952D+00
 Gap=     0.325 Goal=   None    Shift=    0.000
 RMSDP=1.28D-06 MaxDP=1.96D-05 DE=-1.08D-06 OVMax= 3.92D-05

 Initial convergence to 1.0D-05 achieved.  Increase integral accuracy.
 Cycle   7  Pass 1  IDiag  1:
 E= -153.193012521428     Delta-E=        0.000018750487 Rises=F Damp=F
 DIIS: error= 6.32D-06 at cycle   1 NSaved=   1.
 NSaved= 1 IEnMin= 1 EnMin= -153.193012521428     IErMin= 1 ErrMin= 6.32D-06
 ErrMax= 6.32D-06  0.00D+00 EMaxC= 1.00D-01 BMatC= 2.33D-09 BMatP= 2.33D-09
 IDIUse=1 WtCom= 1.00D+00 WtEn= 0.00D+00
 Coeff-Com:  0.100D+01
 Coeff:      0.100D+01
 Gap=     0.325 Goal=   None    Shift=    0.000
 RMSDP=1.28D-06 MaxDP=1.96D-05 DE= 1.88D-05 OVMax= 5.16D-05

 Cycle   8  Pass 1  IDiag  1:
 E= -153.193012526599     Delta-E=       -0.000000005171 Rises=F Damp=F
 DIIS: error= 2.30D-06 at cycle   2 NSaved=   2.
 NSaved= 2 IEnMin= 2 EnMin= -153.193012526599     IErMin= 2 ErrMin= 2.30D-06
 ErrMax= 2.30D-06  0.00D+00 EMaxC= 1.00D-01 BMatC= 4.49D-10 BMatP= 2.33D-09
 IDIUse=1 WtCom= 1.00D+00 WtEn= 0.00D+00
 Coeff-Com:  0.168D+00 0.832D+00
 Coeff:      0.168D+00 0.832D+00
 Gap=     0.325 Goal=   None    Shift=    0.000
 RMSDP=4.68D-07 MaxDP=9.42D-06 DE=-5.17D-09 OVMax= 1.14D-05

 Cycle   9  Pass 1  IDiag  1:
 E= -153.193012526582     Delta-E=        0.000000000017 Rises=F Damp=F
 DIIS: error= 2.88D-06 at cycle   3 NSaved=   3.
 NSaved= 3 IEnMin= 2 EnMin= -153.193012526599     IErMin= 2 ErrMin= 2.30D-06
 ErrMax= 2.88D-06  0.00D+00 EMaxC= 1.00D-01 BMatC= 5.33D-10 BMatP= 4.49D-10
 IDIUse=1 WtCom= 1.00D+00 WtEn= 0.00D+00
 Coeff-Com: -0.271D-01 0.533D+00 0.494D+00
 Coeff:     -0.271D-01 0.533D+00 0.494D+00
 Gap=     0.325 Goal=   None    Shift=    0.000
 RMSDP=2.12D-07 MaxDP=4.66D-06 DE= 1.67D-11 OVMax= 6.21D-06

 Cycle  10  Pass 1  IDiag  1:
 E= -153.193012526959     Delta-E=       -0.000000000377 Rises=F Damp=F
 DIIS: error= 1.72D-07 at cycle   4 NSaved=   4.
 NSaved= 4 IEnMin= 4 EnMin= -153.193012526959     IErMin= 4 ErrMin= 1.72D-07
 ErrMax= 1.72D-07  0.00D+00 EMaxC= 1.00D-01 BMatC= 1.78D-12 BMatP= 4.49D-10
 IDIUse=1 WtCom= 1.00D+00 WtEn= 0.00D+00
 Coeff-Com: -0.133D-01 0.126D+00 0.129D+00 0.758D+00
 Coeff:     -0.133D-01 0.126D+00 0.129D+00 0.758D+00
 Gap=     0.325 Goal=   None    Shift=    0.000
 RMSDP=2.28D-08 MaxDP=2.61D-07 DE=-3.77D-10 OVMax= 4.40D-07

 Cycle  11  Pass 1  IDiag  1:
 E= -153.193012526960     Delta-E=       -0.000000000002 Rises=F Damp=F
 DIIS: error= 5.06D-08 at cycle   5 NSaved=   5.
 NSaved= 5 IEnMin= 5 EnMin= -153.193012526960     IErMin= 5 ErrMin= 5.06D-08
 ErrMax= 5.06D-08  0.00D+00 EMaxC= 1.00D-01 BMatC= 1.71D-13 BMatP= 1.78D-12
 IDIUse=1 WtCom= 1.00D+00 WtEn= 0.00D+00
 Coeff-Com: -0.324D-02 0.239D-01 0.229D-01 0.259D+00 0.698D+00
 Coeff:     -0.324D-02 0.239D-01 0.229D-01 0.259D+00 0.698D+00
 Gap=     0.325 Goal=   None    Shift=    0.000
 RMSDP=5.21D-09 MaxDP=1.39D-07 DE=-1.53D-12 OVMax= 1.37D-07

 SCF Done:  E(RB3LYP) =  -153.193012527     A.U. after   11 cycles
            NFock= 11  Conv=0.52D-08     -V/T= 2.0102
 KE= 1.516423635831D+02 PE=-4.452488547100D+02 EE= 9.548498109520D+01
 Leave Link  502 at Thu Aug 20 16:13:00 2015, MaxMem=    26214400 cpu:               2.8 elap:               2.8
 (Enter /home/lijunj/Gauss/gdv-h37p/gdv/l601.exe)
 Copying SCF densities to generalized density rwf, IOpCl= 0 IROHF=0.

 **********************************************************************

            Population analysis using the SCF density.

 **********************************************************************

 Orbital symmetries:
       Occupied  (A) (A) (A) (A) (A) (A) (A) (A) (A) (A)
       Virtual   (A) (A) (A) (A) (A) (A) (A) (A) (A) (A) (A) (A)
                 (A) (A) (A) (A) (A) (A) (A) (A) (A) (A) (A) (A)
                 (A) (A) (A) (A) (A) (A) (A) (A) (A) (A) (A) (A)
                 (A) (A) (A) (A) (A) (A) (A) (A) (A) (A) (A) (A)
                 (A) (A) (A) (A) (A)
 The electronic state is 1-A.
 Alpha  occ. eigenvalues --  -19.51730 -19.39916  -1.36433  -1.24860  -0.86376
 Alpha  occ. eigenvalues --   -0.86292  -0.76736  -0.67079  -0.64154  -0.55245
 Alpha virt. eigenvalues --   -0.22719  -0.14985  -0.13659  -0.07978  -0.05403
 Alpha virt. eigenvalues --   -0.05231  -0.04519  -0.02133   0.02427   0.04331
 Alpha virt. eigenvalues --    0.05519   0.06128   0.10036   0.62170   0.65160
 Alpha virt. eigenvalues --    0.72437   0.75849   0.79373   0.80211   0.81149
 Alpha virt. eigenvalues --    0.82069   0.87895   0.90986   0.95942   1.13330
 Alpha virt. eigenvalues --    1.14011   1.17656   1.20548   1.27968   1.35866
 Alpha virt. eigenvalues --    1.44065   1.76719   1.79749   1.93905   2.00052
 Alpha virt. eigenvalues --    2.01213   2.17479   2.20930   2.26110   2.34418
 Alpha virt. eigenvalues --    2.37829   2.43558   2.44529   2.67167   2.68970
 Alpha virt. eigenvalues --    2.76776   2.98813   3.11332   3.11624   3.27517
 Alpha virt. eigenvalues --    3.41339   3.91867   3.95667
          Condensed to atoms (all electrons):
               1          2          3          4          5          6
     1  O    7.852823   0.282975   0.210364   0.283871  -0.061453   0.004357
     2  H    0.282975   0.258875  -0.007941  -0.012624   0.003451  -0.000077
     3  H    0.210364  -0.007941   0.194658  -0.008280   0.073280  -0.003390
     4  H    0.283871  -0.012624  -0.008280   0.259060   0.002459  -0.000053
     5  O   -0.061453   0.003451   0.073280   0.002459   8.162175   0.292784
     6  H    0.004357  -0.000077  -0.003390  -0.000053   0.292784   0.297069
     7  H    0.003320  -0.000059  -0.003643  -0.000078   0.293996  -0.014091
               7
     1  O    0.003320
     2  H   -0.000059
     3  H   -0.003643
     4  H   -0.000078
     5  O    0.293996
     6  H   -0.014091
     7  H    0.297004
 Mulliken charges:
               1
     1  O   -0.576258
     2  H    0.475399
     3  H    0.544952
     4  H    0.475647
     5  O   -0.766691
     6  H    0.423400
     7  H    0.423551
 Sum of Mulliken charges =   1.00000
 Mulliken charges with hydrogens summed into heavy atoms:
               1
     1  O    0.919740
     5  O    0.080260
 Electronic spatial extent (au):  <R**2>=            159.4542
 Charge=              1.0000 electrons
 Dipole moment (field-independent basis, Debye):
    X=              1.9686    Y=              0.9880    Z=              0.6283  Tot=              2.2905
 Quadrupole moment (field-independent basis, Debye-Ang):
   XX=              5.3640   YY=             -9.2435   ZZ=            -10.9525
   XY=              0.4854   XZ=              2.6342   YZ=             -0.0325
 Traceless Quadrupole moment (field-independent basis, Debye-Ang):
   XX=             10.3080   YY=             -4.2995   ZZ=             -6.0085
   XY=              0.4854   XZ=              2.6342   YZ=             -0.0325
 Octapole moment (field-independent basis, Debye-Ang**2):
  XXX=              2.1793  YYY=              1.7167  ZZZ=              0.5889  XYY=              3.4191
  XXY=              3.8341  XXZ=              2.1908  XZZ=              0.0667  YZZ=             -0.5244
  YYZ=              0.3143  XYZ=             -6.3364
 Hexadecapole moment (field-independent basis, Debye-Ang**3):
 XXXX=            -70.6360 YYYY=            -11.0772 ZZZZ=            -12.0336 XXXY=              1.1809
 XXXZ=              8.8101 YYYX=              1.5318 YYYZ=             -0.2864 ZZZX=              3.0923
 ZZZY=              0.1020 XXYY=            -13.6663 XXZZ=            -18.5949 YYZZ=             -3.3526
 XXYZ=              0.2562 YYXZ=              0.4659 ZZXY=             -0.7451
 N-N= 4.492849750468D+01 E-N=-4.452488507897D+02  KE= 1.516423635831D+02
 No NMR shielding tensors so no spin-rotation constants.
 Leave Link  601 at Thu Aug 20 16:13:00 2015, MaxMem=    26214400 cpu:               0.1 elap:               0.1
 (Enter /home/lijunj/Gauss/gdv-h37p/gdv/l701.exe)
 Compute integral first derivatives.
 ... and contract with generalized density number  0.
 Leave Link  701 at Thu Aug 20 16:13:00 2015, MaxMem=    26214400 cpu:               0.1 elap:               0.1
 (Enter /home/lijunj/Gauss/gdv-h37p/gdv/l702.exe)
 L702 exits ... SP integral derivatives will be done elsewhere.
 Leave Link  702 at Thu Aug 20 16:13:01 2015, MaxMem=    26214400 cpu:               0.0 elap:               0.0
 (Enter /home/lijunj/Gauss/gdv-h37p/gdv/l703.exe)
 Compute integral first derivatives, UseDBF=F ICtDFT=           0.
 Integral derivatives from FoFJK, PRISM(SPDF).
 Calling FoFJK, ICntrl=      2127 FMM=F ISym2X=0 I1Cent= 0 IOpClX= 0 NMat=1 NMatS=1 NMatT=0.
 FoFJK:  IHMeth= 1 ICntrl=    2127 DoSepK=F KAlg= 0 I1Cent=           0 FoldK=F
 IRaf=         0 NMat=       1 IRICut=       1 DoRegI=T DoRafI=F ISym2E= 0.
 FoFCou: FMM=F IPFlag=           0 FMFlag=      100000 FMFlg1=         800
         NFxFlg=           0 DoJE=F BraDBF=F KetDBF=F FulRan=T
         wScrn=  0.000000 ICntrl=      2127 IOpCl=  0 I1Cent=           0 NGrid=           0
         NMat0=    1 NMatS0=      1 NMatT0=    0 NMatD0=    1 NMtDS0=    0 NMtDT0=    0
 Symmetry not used in FoFCou.
 Leave Link  703 at Thu Aug 20 16:13:02 2015, MaxMem=    26214400 cpu:               1.0 elap:               1.0
 (Enter /home/lijunj/Gauss/gdv-h37p/gdv/l716.exe)
 Dipole        = 7.74515529D-01 3.88714091D-01 2.47182952D-01
 ***** Axes restored to original set *****
 -------------------------------------------------------------------
 Center     Atomic                   Forces (Hartrees/Bohr)
 Number     Number              X              Y              Z
 -------------------------------------------------------------------
      1        8           0.001299993   -0.044453773    0.008045959
      2        1           0.030968546    0.014991689   -0.005926611
      3        1          -0.001050856    0.026023555    0.006124169
      4        1          -0.031827790    0.013983464   -0.006281428
      5        8           0.000932904   -0.011064854   -0.002234156
      6        1          -0.000400788    0.000520818   -0.001478321
      7        1           0.000077991   -0.000000898    0.001750389
 -------------------------------------------------------------------
 Cartesian Forces:  Max     0.044453773 RMS     0.015975142
 Z-matrix is all fixed cartesians, so copy forces.
 Force constants in Cartesian coordinates: 
                1             2             3             4             5 
      1  0.788071D+00
      2  0.437657D-04  0.788037D+00
      3 -0.110276D-02 -0.483633D-03  0.157612D+00
      4 -0.337286D+00 -0.136718D+00  0.794138D-01  0.333648D+00
      5 -0.136728D+00 -0.187826D+00  0.470690D-01  0.153379D+00  0.165962D+00
      6  0.105572D+00  0.625784D-01 -0.529342D-01 -0.826686D-01 -0.490042D-01
      7 -0.106763D+00  0.342073D-02  0.115168D-02  0.162144D-01 -0.338997D-01
      8  0.346639D-02 -0.418676D+00 -0.913395D-01  0.150256D-02 -0.346744D-02
      9  0.150311D-02 -0.121748D+00 -0.523838D-01 -0.570381D-02  0.133330D-01
     10 -0.344022D+00  0.133253D+00 -0.794627D-01 -0.125764D-01  0.172485D-01
     11  0.133218D+00 -0.181535D+00  0.447542D-01 -0.181636D-01  0.253310D-01
     12 -0.105973D+00  0.596531D-01 -0.522942D-01  0.895868D-02 -0.113977D-01
     13  0.000000D+00  0.000000D+00  0.000000D+00  0.000000D+00  0.000000D+00
     14  0.000000D+00  0.000000D+00  0.000000D+00  0.000000D+00  0.000000D+00
     15  0.000000D+00  0.000000D+00  0.000000D+00  0.000000D+00  0.000000D+00
     16  0.000000D+00  0.000000D+00  0.000000D+00  0.000000D+00  0.000000D+00
     17  0.000000D+00  0.000000D+00  0.000000D+00  0.000000D+00  0.000000D+00
     18  0.000000D+00  0.000000D+00  0.000000D+00  0.000000D+00  0.000000D+00
     19  0.000000D+00  0.000000D+00  0.000000D+00  0.000000D+00  0.000000D+00
     20  0.000000D+00  0.000000D+00  0.000000D+00  0.000000D+00  0.000000D+00
     21  0.000000D+00  0.000000D+00  0.000000D+00  0.000000D+00  0.000000D+00
                6             7             8             9            10 
      6  0.367651D-01
      7 -0.142803D-01  0.750284D-01
      8 -0.203335D-02 -0.389984D-02  0.424848D+00
      9  0.808978D-02 -0.116808D-02  0.950702D-01  0.362713D-01
     10 -0.862344D-02  0.155200D-01 -0.106911D-02  0.536878D-02  0.341078D+00
     11 -0.115408D-01  0.343789D-01 -0.270445D-02  0.133447D-01 -0.149433D+00
     12  0.807927D-02  0.142967D-01 -0.169735D-02  0.802269D-02  0.827174D-01
     13  0.000000D+00  0.000000D+00  0.000000D+00  0.000000D+00  0.000000D+00
     14  0.000000D+00  0.000000D+00  0.000000D+00  0.000000D+00  0.000000D+00
     15  0.000000D+00  0.000000D+00  0.000000D+00  0.000000D+00  0.000000D+00
     16  0.000000D+00  0.000000D+00  0.000000D+00  0.000000D+00  0.000000D+00
     17  0.000000D+00  0.000000D+00  0.000000D+00  0.000000D+00  0.000000D+00
     18  0.000000D+00  0.000000D+00  0.000000D+00  0.000000D+00  0.000000D+00
     19  0.000000D+00  0.000000D+00  0.000000D+00  0.000000D+00  0.000000D+00
     20  0.000000D+00  0.000000D+00  0.000000D+00  0.000000D+00  0.000000D+00
     21  0.000000D+00  0.000000D+00  0.000000D+00  0.000000D+00  0.000000D+00
               11            12            13            14            15 
     11  0.158908D+00
     12 -0.465581D-01  0.361922D-01
     13  0.000000D+00  0.000000D+00  0.521178D-01
     14  0.000000D+00  0.000000D+00  0.805311D-01  0.486949D+00
     15  0.000000D+00  0.000000D+00  0.152817D+00 -0.445046D-01  0.665325D+00
     16  0.000000D+00  0.000000D+00 -0.597088D-02 -0.282690D-02 -0.224612D-01
     17  0.000000D+00  0.000000D+00  0.773886D-02 -0.299050D+00  0.263451D+00
     18  0.000000D+00  0.000000D+00 -0.306405D-01  0.219833D+00 -0.296672D+00
     19  0.000000D+00  0.000000D+00 -0.461469D-01 -0.777042D-01 -0.130355D+00
     20  0.000000D+00  0.000000D+00 -0.882699D-01 -0.187899D+00 -0.218947D+00
     21  0.000000D+00  0.000000D+00 -0.122176D+00 -0.175328D+00 -0.368653D+00
               16            17            18            19            20 
     16  0.544248D-02
     17 -0.905278D-02  0.269510D+00
     18  0.294762D-01 -0.246008D+00  0.312128D+00
     19  0.528407D-03  0.131392D-02  0.116428D-02  0.456185D-01
     20  0.118797D-01  0.295397D-01  0.261754D-01  0.763902D-01  0.158359D+00
     21 -0.701498D-02 -0.174432D-01 -0.154566D-01  0.129191D+00  0.192771D+00
               21 
     21  0.384110D+00
 Leave Link  716 at Thu Aug 20 16:13:02 2015, MaxMem=    26214400 cpu:               0.0 elap:               0.0
 (Enter /home/lijunj/Gauss/gdv-h37p/gdv/l103.exe)

 GradGradGradGradGradGradGradGradGradGradGradGradGradGradGradGradGradGrad
 Berny optimization.
 Search for a local minimum.
 Step number   1 out of a maximum of    2
 All quantities printed in internal units (Hartrees-Bohrs-Radians)
 Second derivative matrix not updated -- first step.
 ITU=  0
     Eigenvalues ---    0.00000   0.00000   0.00000   0.00000   0.00000
     Eigenvalues ---    0.00000   0.08688   0.15131   0.15994   0.16355
     Eigenvalues ---    0.50319   0.85760   0.95760   1.03477   1.10246
 Eigenvalue     1 is  -4.44D-16 should be greater than     0.000000 Eigenvector:
                          Z4        X3        Y2        X7        Z3
   1                    0.42393  -0.40299  -0.36258   0.31730  -0.29132
                          X6        Z2        Y7        Y1        Y5
   1                   -0.28659  -0.27291   0.20598  -0.16399   0.15341
 Eigenvalue     2 is  -2.22D-16 should be greater than     0.000000 Eigenvector:
                          Y2        Y6        X7        X6        X3
   1                    0.42943  -0.37833   0.33399  -0.33093   0.32809
                          Z4        Z3        Z2        Y5        Y3
   1                    0.30611  -0.19453  -0.18069  -0.17289   0.16725
 Eigenvalue     3 is   2.22D-16 Eigenvector:
                          Y7        Y6        X7        Z5        Z6
   1                    0.72855  -0.41326  -0.32322   0.22014  -0.19350
                          Z4        X5        Y4        Y3        Y2
   1                   -0.18087   0.17823  -0.09961  -0.08757  -0.07611
 Eigenvalue     4 is   4.44D-16 Eigenvector:
                          Y4        Y6        X3        X6        Y5
   1                    0.50106  -0.47381  -0.38345   0.35272  -0.23942
                          Y1        Y3        Z6        X7        X2
   1                    0.21506   0.21058  -0.16846   0.13998   0.11309
 Eigenvalue     5 is   1.11D-15 Eigenvector:
                          X6        X7        X5        Y5        Y4
   1                    0.50569   0.47768  -0.46479   0.26586  -0.23035
                          Y7        Z5        Y3        Y1        X3
   1                    0.16652   0.16607  -0.16167  -0.15763   0.13863
 Eigenvalue     6 is   9.30D-12 Eigenvector:
                          Z3        Z2        X6        X7        Z7
   1                    0.79033  -0.47022  -0.19730   0.18686  -0.14438
                          Z4        Y2        Y1        Y3        Z1
   1                   -0.11311  -0.09898   0.09557  -0.07235   0.06879
 Quadratic step=8.679D+01 exceeds max=3.000D-01 adjusted using Lamda=-3.157D-02.
 Angle between NR and scaled steps=  23.93 degrees.
 Angle between quadratic step and forces=  66.12 degrees.
 Linear search not attempted -- first point.
 B after Tr=     0.003200   -0.010648   -0.003561
         Rot=    0.999999    0.000302   -0.000300    0.001400 Ang=   0.17 deg.
 Variable       Old X    -DE/DX   Delta X   Delta X   Delta X     New X
                                 (Linear)    (Quad)   (Total)
    X1        0.00022   0.00130   0.00000  -0.00571  -0.00271  -0.00249
    Y1       -0.00182  -0.04445   0.00000   0.08178   0.07071   0.06889
    Z1       -0.73050   0.00805   0.00000   0.01329   0.00968  -0.72082
    X2       -1.61035   0.03097   0.00000   0.07752   0.07811  -1.53225
    Y2       -0.95689   0.01499   0.00000   0.08105   0.07453  -0.88236
    Z2       -0.29198  -0.00593   0.00000   0.00813   0.00602  -0.28596
    X3       -0.02079  -0.00105   0.00000  -0.01604  -0.00739  -0.02818
    Y3        1.87186   0.02602   0.00000   0.12492   0.11422   1.98608
    Z3       -0.29665   0.00612   0.00000   0.05222   0.04748  -0.24917
    X4        1.63409  -0.03183   0.00000  -0.08323  -0.08254   1.55155
    Y4       -0.91950   0.01398   0.00000   0.08729   0.07212  -0.84738
    Z4       -0.29744  -0.00628   0.00000   0.00227  -0.00171  -0.29916
    X5       -0.18722   0.00093   0.00000   0.04272   0.05891  -0.12831
    Y5        4.72158  -0.01106   0.00000  -0.12255  -0.13270   4.58887
    Z5        0.20719  -0.00223   0.00000  -0.03225  -0.03850   0.16869
    X6       -0.28251  -0.00040   0.00000  -0.03585  -0.01689  -0.29940
    Y6        5.95360   0.00052   0.00000  -0.08416  -0.09463   5.85897
    Z6       -1.13994  -0.00148   0.00000   0.00019  -0.00673  -1.14667
    X7        0.34337   0.00008   0.00000  -0.04710  -0.02747   0.31590
    Y7        5.59304   0.00000   0.00000  -0.09378  -0.10424   5.48880
    Z7        1.72297   0.00175   0.00000  -0.00917  -0.01623   1.70673
         Item               Value     Threshold  Converged?
 Maximum Force            0.044454     0.000450     NO 
 RMS     Force            0.015975     0.000300     NO 
 Maximum Displacement     0.132704     0.001800     NO 
 RMS     Displacement     0.064697     0.001200     NO 
 Predicted change in Energy=-5.871119D-03
 GradGradGradGradGradGradGradGradGradGradGradGradGradGradGradGradGradGrad

 Leave Link  103 at Thu Aug 20 16:13:02 2015, MaxMem=    26214400 cpu:               0.0 elap:               0.0
 (Enter /home/lijunj/Gauss/gdv-h37p/gdv/l9999.exe)

 Test job not archived.
 1\1\GINC-BL-CHEM-IYENGAR11\Force\RB3LYP\6-31+G(d,p)\H5O2(1+)\LIJUNJ\20
 -Aug-2015\0\\#p b3lyp/6-31+g(d,p) iop(2/29=1) force\\title\\1,1\O,0.00
 0116,-0.000961,-0.386565\H,-0.852163,-0.506364,-0.154508\H,-0.011003,0
 .990547,-0.156979\H,0.864723,-0.486579,-0.1574\O,-0.099071,2.49855,0.1
 09641\H,-0.149496,3.150512,-0.603231\H,0.181701,2.959711,0.911754\\Ver
 sion=AM64L-GDVRevH.37+\State=1-A\HF=-153.1930125\RMSD=5.207e-09\RMSF=1
 .598e-02\Dipole=0.2205668,-0.8258795,0.2852116\Quadrupole=-3.555217,7.
 9716592,-4.4164422,0.3326366,0.6666227,0.1356356\PG=C01 [X(H5O2)]\\@


 IBM COMPATIBILITY IS LIKE PREGNANCY. YOU ARE OR
 OR YOU ARE NOT. -- ADAM OSBORNE
 Job cpu time:       0 days  0 hours  0 minutes  5.0 seconds.
 Elapsed time:       0 days  0 hours  0 minutes  4.9 seconds.
 File lengths (MBytes):  RWF=      5 Int=      0 D2E=      0 Chk=      2 Scr=      1
 Normal termination of Gaussian DV at Thu Aug 20 16:13:02 2015.
