 Entering Gaussian System, Link 0=gdv
 Initial command:
 /home/lijunj/Gauss/gdv-h37p/gdv/l1.exe "/scratch/lijunj/Gau-11428.inp" -scrdir="/scratch/lijunj/"
 Entering Link 1 = /home/lijunj/Gauss/gdv-h37p/gdv/l1.exe PID=     11429.
  
 Copyright (c) 1988,1990,1992,1993,1995,1998,2003,2009,2014,
            Gaussian, Inc.  All Rights Reserved.
  
 This is the private, development version of
 the Gaussian(R) DV system of programs. It is based on
 the Gaussian(R) 09 system (copyright 2009, Gaussian, Inc.),
 the Gaussian(R) 03 system (copyright 2003, Gaussian, Inc.),
 the Gaussian(R) 98 system (copyright 1998, Gaussian, Inc.),
 the Gaussian(R) 94 system (copyright 1995, Gaussian, Inc.),
 the Gaussian 92(TM) system (copyright 1992, Gaussian, Inc.),
 the Gaussian 90(TM) system (copyright 1990, Gaussian, Inc.),
 the Gaussian 88(TM) system (copyright 1988, Gaussian, Inc.),
 the Gaussian 86(TM) system (copyright 1986, Carnegie Mellon
 University), and the Gaussian 82(TM) system (copyright 1983,
 Carnegie Mellon University). Gaussian is a federally registered
 trademark of Gaussian, Inc.
  
 This software contains proprietary and confidential information,
 including trade secrets, belonging to Gaussian, Inc.
  
 This software is provided under written license and may be
 used, copied, transmitted, or stored only in accord with that
 written license.
  
 The following legend is applicable only to US Government
 contracts under FAR:
  
                    RESTRICTED RIGHTS LEGEND
  
 Use, reproduction and disclosure by the US Government is
 subject to restrictions as set forth in subparagraphs (a)
 and (c) of the Commercial Computer Software - Restricted
 Rights clause in FAR 52.227-19.
  
 Gaussian, Inc.
 340 Quinnipiac St., Bldg. 40, Wallingford CT 06492
  
  
 ---------------------------------------------------------------
 Warning -- This program may not be used in any manner that
 competes with the business of Gaussian, Inc. or will provide
 assistance to any competitor of Gaussian, Inc.  The licensee
 of this program is prohibited from giving any competitor of
 Gaussian, Inc. access to this program.  By using this program,
 the user acknowledges that Gaussian, Inc. is engaged in the
 business of creating and licensing software in the field of
 computational chemistry and represents and warrants to the
 licensee that it is not a competitor of Gaussian, Inc. and that
 it will not use this program in any manner prohibited above.
 ---------------------------------------------------------------
  

 Cite this work as:
 Gaussian Development Version, Revision H.37+,
 M. J. Frisch, G. W. Trucks, H. B. Schlegel, G. E. Scuseria, 
 M. A. Robb, J. R. Cheeseman, G. Scalmani, V. Barone, B. Mennucci, 
 G. A. Petersson, H. Nakatsuji, M. Caricato, X. Li, H. P. Hratchian, 
 A. F. Izmaylov, J. Bloino, B. G. Janesko, F. Lipparini, G. Zheng, 
 J. L. Sonnenberg, W. Liang, M. Hada, M. Ehara, K. Toyota, R. Fukuda, 
 J. Hasegawa, M. Ishida, T. Nakajima, Y. Honda, O. Kitao, H. Nakai, 
 T. Vreven, J. A. Montgomery, Jr., J. E. Peralta, F. Ogliaro, 
 M. Bearpark, J. J. Heyd, E. Brothers, K. N. Kudin, V. N. Staroverov, 
 T. Keith, R. Kobayashi, J. Normand, K. Raghavachari, A. Rendell, 
 J. C. Burant, S. S. Iyengar, J. Tomasi, M. Cossi, N. Rega, 
 J. M. Millam, M. Klene, J. E. Knox, J. B. Cross, V. Bakken, 
 C. Adamo, J. Jaramillo, R. Gomperts, R. E. Stratmann, O. Yazyev, 
 A. J. Austin, R. Cammi, C. Pomelli, J. W. Ochterski, R. L. Martin, 
 K. Morokuma, V. G. Zakrzewski, G. A. Voth, P. Salvador, 
 J. J. Dannenberg, S. Dapprich, P. V. Parandekar, N. J. Mayhall, 
 A. D. Daniels, O. Farkas, J. B. Foresman, J. V. Ortiz, 
 J. Cioslowski, and D. J. Fox, Gaussian, Inc., Wallingford CT, 2010.
 
 *******************************************
 Gaussian DV:  AM64L-GDVRevH.37+ 17-Apr-2014
                 20-Aug-2015 
 *******************************************
 %mem=200MB
 %chk=FHF.chk
 %nproc=1
 Will use up to    1 processors via shared memory.
 ------------------------
 #p pm6 iop(2/29=1) force
 ------------------------
 1/10=7,30=1,38=1/1,3;
 2/12=2,17=6,18=5,29=1,40=1/2;
 3/5=2,16=1,25=1,41=3900000,71=1/1,2,3;
 4/35=1/1;
 5/5=2,35=1,38=5/2;
 6/7=2,8=2,9=2,10=2,28=1/1;
 7/29=1/1,2,3,16;
 1/10=7,30=1/3;
 99//99;
 Leave Link    1 at Thu Aug 20 16:13:05 2015, MaxMem=    26214400 cpu:               0.0 elap:               0.0
 (Enter /home/lijunj/Gauss/gdv-h37p/gdv/l101.exe)
 -----
 title
 -----
 Symbolic Z-matrix:
 Charge =  1 Multiplicity = 1
 O                     0.00012  -0.00096  -0.38657 
 H                    -0.85216  -0.50636  -0.15451 
 H                    -0.011     0.99055  -0.15698 
 H                     0.86472  -0.48658  -0.1574 
 
 ITRead=  0  0  0  0
 MicOpt= -1 -1 -1 -1
 NAtoms=      4 NQM=        4 NQMF=       0 NMMI=      0 NMMIF=      0
                NMic=       0 NMicF=      0.
                    Isotopes and Nuclear Properties:
 (Nuclear quadrupole moments (NQMom) in fm**2, nuclear magnetic moments (NMagM)
  in nuclear magnetons)

  Atom         1           2           3           4
 IAtWgt=          16           1           1           1
 AtmWgt=  15.9949146   1.0078250   1.0078250   1.0078250
 NucSpn=           0           1           1           1
 AtZEff=   0.0000000   0.0000000   0.0000000   0.0000000
 NQMom=    0.0000000   0.0000000   0.0000000   0.0000000
 NMagM=    0.0000000   2.7928460   2.7928460   2.7928460
 AtZNuc=   8.0000000   1.0000000   1.0000000   1.0000000
 Leave Link  101 at Thu Aug 20 16:13:05 2015, MaxMem=    26214400 cpu:               0.1 elap:               0.1
 (Enter /home/lijunj/Gauss/gdv-h37p/gdv/l103.exe)

 GradGradGradGradGradGradGradGradGradGradGradGradGradGradGradGradGradGrad
 Berny optimization.
 Initialization pass.
 Trust Radius=3.00D-01 FncErr=1.00D-07 GrdErr=1.00D-07 EigMax=2.50D+02 EigMin=1.00D-04
 Number of steps in this run=      2 maximum allowed number of steps=      2.
 GradGradGradGradGradGradGradGradGradGradGradGradGradGradGradGradGradGrad

 Leave Link  103 at Thu Aug 20 16:13:05 2015, MaxMem=    26214400 cpu:               0.0 elap:               0.0
 (Enter /home/lijunj/Gauss/gdv-h37p/gdv/l202.exe)
                          Input orientation:                          
 ---------------------------------------------------------------------
 Center     Atomic      Atomic             Coordinates (Angstroms)
 Number     Number       Type             X           Y           Z
 ---------------------------------------------------------------------
      1          8           0        0.000116   -0.000961   -0.386565
      2          1           0       -0.852163   -0.506364   -0.154508
      3          1           0       -0.011003    0.990547   -0.156979
      4          1           0        0.864723   -0.486579   -0.157400
 ---------------------------------------------------------------------
                    Distance matrix (angstroms):
                    1          2          3          4
     1  O    0.000000
     2  H    1.017675   0.000000
     3  H    1.017802   1.717061   0.000000
     4  H    1.017785   1.717002   1.717206   0.000000
 Stoichiometry    H3O(1+)
 Framework group  C1[X(H3O)]
 Deg. of freedom     6
 Full point group                 C1      NOp   1
 Largest Abelian subgroup         C1      NOp   1
 Largest concise Abelian subgroup C1      NOp   1
                         Standard orientation:                         
 ---------------------------------------------------------------------
 Center     Atomic      Atomic             Coordinates (Angstroms)
 Number     Number       Type             X           Y           Z
 ---------------------------------------------------------------------
      1          8           0        0.000002    0.000005   -0.062801
      2          1           0       -0.139948    0.981355    0.167474
      3          1           0        0.919974   -0.369520    0.167469
      4          1           0       -0.780044   -0.611872    0.167463
 ---------------------------------------------------------------------
 Rotational constants (GHZ):    311.8939190    311.8132101    170.0771500
 Leave Link  202 at Thu Aug 20 16:13:05 2015, MaxMem=    26214400 cpu:               0.0 elap:               0.0
 (Enter /home/lijunj/Gauss/gdv-h37p/gdv/l301.exe)
 Standard basis: VSTO-6G (5D, 7F)
 Ernie: Thresh=  0.10000D-02 Tol=  0.10000D-05 Strict=F.
  NNHCO=     0 NNPyr=     0 NCTC=     0               EPep=         0.000000000
    EC=         7.047072491  ECS=         0.658811795   EG=         0.004560255
   EHC=         0.000009671  EAt=       -11.791685415  AtH=         0.344002774
 EPDDG=         0.000000000  ECC=         7.710454212 EAtT=        12.135688189
 There are     7 symmetry adapted cartesian basis functions of A   symmetry.
 There are     7 symmetry adapted basis functions of A   symmetry.
     7 basis functions,    42 primitive gaussians,     7 cartesian basis functions
     4 alpha electrons        4 beta electrons
       nuclear repulsion energy        19.8461424009 Hartrees.
 IExCor=    0 DFT=F Ex=HF Corr=None ExCW=0 ScaHFX=  1.000000
 ScaDFX=  1.000000  1.000000  1.000000  1.000000 ScalE2=  1.000000  1.000000
 IRadAn=      0 IRanWt=     -1 IRanGd=            0 ICorTp=0 IEmpDi=  4
 Integral buffers will be    131072 words long.
 Regular integral format.
 Two-electron integral symmetry is turned off.
 Leave Link  301 at Thu Aug 20 16:13:05 2015, MaxMem=    26214400 cpu:               0.0 elap:               0.0
 (Enter /home/lijunj/Gauss/gdv-h37p/gdv/l302.exe)
 Do NDO integrals.
 NPDir=0 NMtPBC=     1 NCelOv=     1 NCel=       1 NClECP=     1 NCelD=      1
         NCelK=      1 NCelE2=     1 NClLst=     1 CellRange=     0.0.
 One-electron integrals computed using PRISM.
 NBasis=     7 RedAO= F EigKep=  0.00D+00  NBF=     7
 NBsUse=     7 1.00D-04 EigRej=  0.00D+00 NBFU=     7
 Leave Link  302 at Thu Aug 20 16:13:05 2015, MaxMem=    26214400 cpu:               0.1 elap:               0.1
 (Enter /home/lijunj/Gauss/gdv-h37p/gdv/l303.exe)
 DipDrv:  MaxL=1.
 Leave Link  303 at Thu Aug 20 16:13:05 2015, MaxMem=    26214400 cpu:               0.0 elap:               0.0
 (Enter /home/lijunj/Gauss/gdv-h37p/gdv/l401.exe)
 Simple Huckel Guess.
 JPrj=0 DoOrth=F DoCkMO=F.
 Leave Link  401 at Thu Aug 20 16:13:05 2015, MaxMem=    26214400 cpu:               0.1 elap:               0.1
 (Enter /home/lijunj/Gauss/gdv-h37p/gdv/l502.exe)
 Keep J ints in memory in canonical form, NReq=859056.
 FoFCou: FMM=F IPFlag=           0 FMFlag=           0 FMFlg1=           0
         NFxFlg=           0 DoJE=F BraDBF=F KetDBF=F FulRan=T
         wScrn=  0.000000 ICntrl=       600 IOpCl=  2 I1Cent=           0 NGrid=           0
         NMat0=    1 NMatS0=     13 NMatT0=    0 NMatD0=    1 NMtDS0=    0 NMtDT0=    0
 Symmetry not used in FoFCou.
 Two-electron integral symmetry not used.
 Closed shell SCF:
 Using DIIS extrapolation, IDIIS=  1040.
 Overlap will be assumed to be unity.
 NGot=    26214400 LenX=    26154171 LenY=    26153289
 Requested convergence on RMS density matrix=1.00D-08 within 128 cycles.
 Requested convergence on MAX density matrix=1.00D-06.
 Requested convergence on             energy=1.00D-06.
 No special actions if energy rises.

 Cycle   1  Pass 1  IDiag  1:
 E= 0.341437896208305    
 DIIS: error= 5.65D-02 at cycle   1 NSaved=   1.
 NSaved= 1 IEnMin= 1 EnMin= 0.341437896208305     IErMin= 1 ErrMin= 5.65D-02
 ErrMax= 5.65D-02  0.00D+00 EMaxC= 1.00D-01 BMatC= 4.74D-02 BMatP= 4.74D-02
 IDIUse=3 WtCom= 4.35D-01 WtEn= 5.65D-01
 Coeff-Com:  0.100D+01
 Coeff-En:   0.100D+01
 Coeff:      0.100D+01
 GapD=    2.000 DampG=2.000 DampE=0.500 DampFc=1.0000 IDamp=-1.
 RMSDP=3.97D-02 MaxDP=1.60D-01              OVMax= 0.00D+00

 Cycle   2  Pass 1  IDiag  1:
 E= 0.239135397628914     Delta-E=       -0.102302498579 Rises=F Damp=F
 DIIS: error= 1.23D-02 at cycle   2 NSaved=   2.
 NSaved= 2 IEnMin= 2 EnMin= 0.239135397628914     IErMin= 2 ErrMin= 1.23D-02
 ErrMax= 1.23D-02  0.00D+00 EMaxC= 1.00D-01 BMatC= 2.13D-03 BMatP= 4.74D-02
 IDIUse=3 WtCom= 8.77D-01 WtEn= 1.23D-01
 Coeff-Com: -0.235D+00 0.124D+01
 Coeff-En:   0.000D+00 0.100D+01
 Coeff:     -0.206D+00 0.121D+01
 RMSDP=1.17D-02 MaxDP=4.07D-02 DE=-1.02D-01 OVMax= 0.00D+00

 Cycle   3  Pass 1  IDiag  3:
 E= 0.232968083872017     Delta-E=       -0.006167313757 Rises=F Damp=F
 DIIS: error= 2.67D-03 at cycle   3 NSaved=   3.
 NSaved= 3 IEnMin= 3 EnMin= 0.232968083872017     IErMin= 3 ErrMin= 2.67D-03
 ErrMax= 2.67D-03  0.00D+00 EMaxC= 1.00D-01 BMatC= 1.39D-04 BMatP= 2.13D-03
 IDIUse=3 WtCom= 9.73D-01 WtEn= 2.67D-02
 Coeff-Com:  0.232D+00-0.140D+01 0.217D+01
 Coeff-En:   0.000D+00 0.000D+00 0.100D+01
 Coeff:      0.226D+00-0.136D+01 0.213D+01
 Gap=     0.562 Goal=   None    Shift=    0.000
 RMSDP=7.92D-03 MaxDP=1.71D-02 DE=-6.17D-03 OVMax= 3.67D-02

 Cycle   4  Pass 1  IDiag  3:
 E= 0.232020565476137     Delta-E=       -0.000947518396 Rises=F Damp=F
 DIIS: error= 2.12D-04 at cycle   4 NSaved=   4.
 NSaved= 4 IEnMin= 4 EnMin= 0.232020565476137     IErMin= 4 ErrMin= 2.12D-04
 ErrMax= 2.12D-04  0.00D+00 EMaxC= 1.00D-01 BMatC= 1.01D-06 BMatP= 1.39D-04
 IDIUse=3 WtCom= 9.98D-01 WtEn= 2.12D-03
 Coeff-Com:  0.125D-01-0.562D-01-0.672D-02 0.105D+01
 Coeff-En:   0.000D+00 0.000D+00 0.000D+00 0.100D+01
 Coeff:      0.125D-01-0.560D-01-0.671D-02 0.105D+01
 Gap=     0.564 Goal=   None    Shift=    0.000
 RMSDP=6.46D-04 MaxDP=1.36D-03 DE=-9.48D-04 OVMax= 2.90D-03

 Cycle   5  Pass 1  IDiag  3:
 E= 0.232014590557583     Delta-E=       -0.000005974919 Rises=F Damp=F
 DIIS: error= 2.29D-05 at cycle   5 NSaved=   5.
 NSaved= 5 IEnMin= 5 EnMin= 0.232014590557583     IErMin= 5 ErrMin= 2.29D-05
 ErrMax= 2.29D-05  0.00D+00 EMaxC= 1.00D-01 BMatC= 6.76D-09 BMatP= 1.01D-06
 IDIUse=1 WtCom= 1.00D+00 WtEn= 0.00D+00
 Coeff-Com:  0.228D-02-0.230D-01 0.830D-01-0.597D+00 0.153D+01
 Coeff:      0.228D-02-0.230D-01 0.830D-01-0.597D+00 0.153D+01
 Gap=     0.564 Goal=   None    Shift=    0.000
 RMSDP=2.63D-05 MaxDP=7.92D-05 DE=-5.97D-06 OVMax= 7.81D-05

 Cycle   6  Pass 1  IDiag  3:
 E= 0.232014568092986     Delta-E=       -0.000000022465 Rises=F Damp=F
 DIIS: error= 1.73D-06 at cycle   6 NSaved=   6.
 NSaved= 6 IEnMin= 6 EnMin= 0.232014568092986     IErMin= 6 ErrMin= 1.73D-06
 ErrMax= 1.73D-06  0.00D+00 EMaxC= 1.00D-01 BMatC= 6.11D-11 BMatP= 6.76D-09
 IDIUse=1 WtCom= 1.00D+00 WtEn= 0.00D+00
 Coeff-Com: -0.994D-03 0.993D-02-0.343D-01 0.238D+00-0.675D+00 0.146D+01
 Coeff:     -0.994D-03 0.993D-02-0.343D-01 0.238D+00-0.675D+00 0.146D+01
 Gap=     0.564 Goal=   None    Shift=    0.000
 RMSDP=3.05D-06 MaxDP=7.71D-06 DE=-2.25D-08 OVMax= 0.00D+00

 Cycle   7  Pass 1  IDiag  3:
 E= 0.232014567959794     Delta-E=       -0.000000000133 Rises=F Damp=F
 DIIS: error= 7.00D-07 at cycle   7 NSaved=   7.
 NSaved= 7 IEnMin= 7 EnMin= 0.232014567959794     IErMin= 7 ErrMin= 7.00D-07
 ErrMax= 7.00D-07  0.00D+00 EMaxC= 1.00D-01 BMatC= 1.06D-11 BMatP= 6.11D-11
 IDIUse=1 WtCom= 1.00D+00 WtEn= 0.00D+00
 Coeff-Com:  0.267D-03-0.262D-02 0.838D-02-0.540D-01 0.186D+00-0.485D+00
 Coeff-Com:  0.135D+01
 Coeff:      0.267D-03-0.262D-02 0.838D-02-0.540D-01 0.186D+00-0.485D+00
 Coeff:      0.135D+01
 Gap=     0.564 Goal=   None    Shift=    0.000
 RMSDP=1.10D-06 MaxDP=3.16D-06 DE=-1.33D-10 OVMax= 3.15D-06

 Cycle   8  Pass 1  IDiag  3:
 E= 0.232014567934261     Delta-E=       -0.000000000026 Rises=F Damp=F
 DIIS: error= 2.02D-07 at cycle   8 NSaved=   8.
 NSaved= 8 IEnMin= 8 EnMin= 0.232014567934261     IErMin= 8 ErrMin= 2.02D-07
 ErrMax= 2.02D-07  0.00D+00 EMaxC= 1.00D-01 BMatC= 7.07D-13 BMatP= 1.06D-11
 IDIUse=1 WtCom= 1.00D+00 WtEn= 0.00D+00
 Coeff-Com: -0.182D-04 0.158D-03-0.174D-03-0.125D-02-0.151D-01 0.884D-01
 Coeff-Com: -0.403D+00 0.133D+01
 Coeff:     -0.182D-04 0.158D-03-0.174D-03-0.125D-02-0.151D-01 0.884D-01
 Coeff:     -0.403D+00 0.133D+01
 Gap=     0.564 Goal=   None    Shift=    0.000
 RMSDP=2.68D-07 MaxDP=7.95D-07 DE=-2.55D-11 OVMax= 7.93D-07

 Cycle   9  Pass 1  IDiag  3:
 E= 0.232014567932396     Delta-E=       -0.000000000002 Rises=F Damp=F
 DIIS: error= 1.71D-08 at cycle   9 NSaved=   9.
 NSaved= 9 IEnMin= 9 EnMin= 0.232014567932396     IErMin= 9 ErrMin= 1.71D-08
 ErrMax= 1.71D-08  0.00D+00 EMaxC= 1.00D-01 BMatC= 6.27D-15 BMatP= 7.07D-13
 IDIUse=1 WtCom= 1.00D+00 WtEn= 0.00D+00
 Coeff-Com:  0.657D-05-0.571D-04 0.671D-04 0.491D-03 0.568D-02-0.341D-01
 Coeff-Com:  0.143D+00-0.454D+00 0.134D+01
 Coeff:      0.657D-05-0.571D-04 0.671D-04 0.491D-03 0.568D-02-0.341D-01
 Coeff:      0.143D+00-0.454D+00 0.134D+01
 Gap=     0.564 Goal=   None    Shift=    0.000
 RMSDP=6.86D-08 MaxDP=1.38D-07 DE=-1.87D-12 OVMax= 2.93D-07

 Cycle  10  Pass 1  IDiag  3:
 E= 0.232014567932364     Delta-E=        0.000000000000 Rises=F Damp=F
 DIIS: error= 6.16D-09 at cycle  10 NSaved=  10.
 NSaved=10 IEnMin=10 EnMin= 0.232014567932364     IErMin=10 ErrMin= 6.16D-09
 ErrMax= 6.16D-09  0.00D+00 EMaxC= 1.00D-01 BMatC= 7.79D-16 BMatP= 6.27D-15
 IDIUse=1 WtCom= 1.00D+00 WtEn= 0.00D+00
 Coeff-Com:  0.395D-05-0.379D-04 0.108D-03-0.651D-03 0.268D-02-0.888D-02
 Coeff-Com:  0.345D-01-0.358D-01-0.235D+00 0.124D+01
 Coeff:      0.395D-05-0.379D-04 0.108D-03-0.651D-03 0.268D-02-0.888D-02
 Coeff:      0.345D-01-0.358D-01-0.235D+00 0.124D+01
 Gap=     0.564 Goal=   None    Shift=    0.000
 RMSDP=1.44D-08 MaxDP=3.06D-08 DE=-3.20D-14 OVMax= 6.46D-08

 Cycle  11  Pass 1  IDiag  3:
 E= 0.232014567932357     Delta-E=        0.000000000000 Rises=F Damp=F
 DIIS: error= 3.10D-09 at cycle  11 NSaved=  11.
 NSaved=11 IEnMin=11 EnMin= 0.232014567932357     IErMin=11 ErrMin= 3.10D-09
 ErrMax= 3.10D-09  0.00D+00 EMaxC= 1.00D-01 BMatC= 1.50D-16 BMatP= 7.79D-16
 IDIUse=1 WtCom= 1.00D+00 WtEn= 0.00D+00
 Coeff-Com: -0.170D-05 0.159D-04-0.368D-04 0.176D-03-0.117D-02 0.502D-02
 Coeff-Com: -0.232D-01 0.199D-01 0.182D+00-0.105D+01 0.187D+01
 Coeff:     -0.170D-05 0.159D-04-0.368D-04 0.176D-03-0.117D-02 0.502D-02
 Coeff:     -0.232D-01 0.199D-01 0.182D+00-0.105D+01 0.187D+01
 Gap=     0.564 Goal=   None    Shift=    0.000
 RMSDP=6.91D-09 MaxDP=1.76D-08 DE=-7.11D-15 OVMax= 2.06D-08

 Cycle  12  Pass 2  IDiag  1:
 SCF Done:  E(RPM6) =  0.232014567932     A.U. after   12 cycles
            NFock= 11  Conv=0.69D-08     -V/T= 1.0118
 KE=-1.973610217555D+01 PE=-1.087609025061D+01 EE= 1.099806459315D+01
 Leave Link  502 at Thu Aug 20 16:13:05 2015, MaxMem=    26214400 cpu:               0.0 elap:               0.0
 (Enter /home/lijunj/Gauss/gdv-h37p/gdv/l601.exe)
 Copying SCF densities to generalized density rwf, IOpCl= 0 IROHF=0.

 **********************************************************************

            Population analysis using the SCF density.

 **********************************************************************

 Orbital symmetries:
       Occupied  (A) (A) (A) (A)
       Virtual   (A) (A) (A)
 The electronic state is 1-A.
 Alpha  occ. eigenvalues --   -1.45904  -1.02338  -1.02337  -0.80225
 Alpha virt. eigenvalues --   -0.23826  -0.10537  -0.10535
          Condensed to atoms (all electrons):
               1          2          3          4
     1  O    6.308701   0.000000   0.000000   0.000000
     2  H    0.000000   0.563810   0.000000   0.000000
     3  H    0.000000   0.000000   0.563737   0.000000
     4  H    0.000000   0.000000   0.000000   0.563752
 Mulliken charges:
               1
     1  O   -0.308701
     2  H    0.436190
     3  H    0.436263
     4  H    0.436248
 Sum of Mulliken charges =   1.00000
 Mulliken charges with hydrogens summed into heavy atoms:
               1
     1  O    1.000000
 Charge=              1.0000 electrons
 Dipole moment (field-independent basis, Debye):
    X=              0.0000    Y=             -0.0003    Z=              1.4073  Tot=              1.4073
 N-N= 1.984614240094D+01 E-N=-1.087609021550D+01  KE=-1.973610217555D+01
 Leave Link  601 at Thu Aug 20 16:13:05 2015, MaxMem=    26214400 cpu:               0.0 elap:               0.0
 (Enter /home/lijunj/Gauss/gdv-h37p/gdv/l701.exe)
 Compute integral first derivatives.
 ... and contract with generalized density number  0.
 Leave Link  701 at Thu Aug 20 16:13:05 2015, MaxMem=    26214400 cpu:               0.0 elap:               0.1
 (Enter /home/lijunj/Gauss/gdv-h37p/gdv/l702.exe)
 L702 exits ... SP integral derivatives will be done elsewhere.
 Leave Link  702 at Thu Aug 20 16:13:05 2015, MaxMem=    26214400 cpu:               0.0 elap:               0.0
 (Enter /home/lijunj/Gauss/gdv-h37p/gdv/l703.exe)
 Compute integral first derivatives, UseDBF=F ICtDFT=           0.
 Integral derivatives from FoFJK, PRISM(SPDF).
 Calling FoFJK, ICntrl=      2127 FMM=F ISym2X=0 I1Cent= 0 IOpClX= 0 NMat=1 NMatS=1 NMatT=0.
 FoFJK:  IHMeth=40 ICntrl=    2127 DoSepK=F KAlg= 0 I1Cent=           0 FoldK=F
 IRaf=         0 NMat=       1 IRICut=       1 DoRegI=T DoRafI=F ISym2E= 0.
 FoFCou: FMM=F IPFlag=           0 FMFlag=      100000 FMFlg1=         800
         NFxFlg=           0 DoJE=F BraDBF=F KetDBF=F FulRan=T
         wScrn=  0.000000 ICntrl=      2127 IOpCl=  0 I1Cent=           0 NGrid=           0
         NMat0=    1 NMatS0=      1 NMatT0=    0 NMatD0=    1 NMtDS0=    0 NMtDT0=    0
 Symmetry not used in FoFCou.
 Leave Link  703 at Thu Aug 20 16:13:05 2015, MaxMem=    26214400 cpu:               0.0 elap:               0.0
 (Enter /home/lijunj/Gauss/gdv-h37p/gdv/l716.exe)
 Dipole        = 1.73321023D-05-1.31586953D-04 5.53690494D-01
 ***** Axes restored to original set *****
 -------------------------------------------------------------------
 Center     Atomic                   Forces (Hartrees/Bohr)
 Number     Number              X              Y              Z
 -------------------------------------------------------------------
      1        8          -0.000002381    0.000001599   -0.013901198
      2        1           0.011259756    0.006679514    0.004613949
      3        1           0.000165959   -0.013121179    0.004641030
      4        1          -0.011423334    0.006440066    0.004646220
 -------------------------------------------------------------------
 Cartesian Forces:  Max     0.013901198 RMS     0.008027122
 Z-matrix is all fixed cartesians, so copy forces.
 Force constants in Cartesian coordinates: 
                1             2             3             4             5 
      1  0.788071D+00
      2  0.437657D-04  0.788037D+00
      3 -0.110276D-02 -0.483633D-03  0.157612D+00
      4 -0.337286D+00 -0.136718D+00  0.794138D-01  0.333648D+00
      5 -0.136728D+00 -0.187826D+00  0.470690D-01  0.153379D+00  0.165962D+00
      6  0.105572D+00  0.625784D-01 -0.529342D-01 -0.826686D-01 -0.490042D-01
      7 -0.106763D+00  0.342073D-02  0.115168D-02  0.162144D-01 -0.338997D-01
      8  0.346639D-02 -0.418676D+00 -0.913395D-01  0.150256D-02 -0.346744D-02
      9  0.150311D-02 -0.121748D+00 -0.523838D-01 -0.570381D-02  0.133330D-01
     10 -0.344022D+00  0.133253D+00 -0.794627D-01 -0.125764D-01  0.172485D-01
     11  0.133218D+00 -0.181535D+00  0.447542D-01 -0.181636D-01  0.253310D-01
     12 -0.105973D+00  0.596531D-01 -0.522942D-01  0.895868D-02 -0.113977D-01
                6             7             8             9            10 
      6  0.367651D-01
      7 -0.142803D-01  0.750284D-01
      8 -0.203335D-02 -0.389984D-02  0.424848D+00
      9  0.808978D-02 -0.116808D-02  0.950702D-01  0.362713D-01
     10 -0.862344D-02  0.155200D-01 -0.106911D-02  0.536878D-02  0.341078D+00
     11 -0.115408D-01  0.343789D-01 -0.270445D-02  0.133447D-01 -0.149433D+00
     12  0.807927D-02  0.142967D-01 -0.169735D-02  0.802269D-02  0.827174D-01
               11            12 
     11  0.158908D+00
     12 -0.465581D-01  0.361922D-01
 Leave Link  716 at Thu Aug 20 16:13:05 2015, MaxMem=    26214400 cpu:               0.0 elap:               0.0
 (Enter /home/lijunj/Gauss/gdv-h37p/gdv/l103.exe)

 GradGradGradGradGradGradGradGradGradGradGradGradGradGradGradGradGradGrad
 Berny optimization.
 Search for a local minimum.
 Step number   1 out of a maximum of    2
 All quantities printed in internal units (Hartrees-Bohrs-Radians)
 Second derivative matrix not updated -- first step.
 The second derivative matrix:
                          X1        Y1        Z1        X2        Y2
           X1           0.78807
           Y1           0.00004   0.78804
           Z1          -0.00110  -0.00048   0.15761
           X2          -0.33729  -0.13672   0.07941   0.33365
           Y2          -0.13673  -0.18783   0.04707   0.15338   0.16596
           Z2           0.10557   0.06258  -0.05293  -0.08267  -0.04900
           X3          -0.10676   0.00342   0.00115   0.01621  -0.03390
           Y3           0.00347  -0.41868  -0.09134   0.00150  -0.00347
           Z3           0.00150  -0.12175  -0.05238  -0.00570   0.01333
           X4          -0.34402   0.13325  -0.07946  -0.01258   0.01725
           Y4           0.13322  -0.18153   0.04475  -0.01816   0.02533
           Z4          -0.10597   0.05965  -0.05229   0.00896  -0.01140
                          Z2        X3        Y3        Z3        X4
           Z2           0.03677
           X3          -0.01428   0.07503
           Y3          -0.00203  -0.00390   0.42485
           Z3           0.00809  -0.00117   0.09507   0.03627
           X4          -0.00862   0.01552  -0.00107   0.00537   0.34108
           Y4          -0.01154   0.03438  -0.00270   0.01334  -0.14943
           Z4           0.00808   0.01430  -0.00170   0.00802   0.08272
                          Y4        Z4
           Y4           0.15891
           Z4          -0.04656   0.03619
 ITU=  0
     Eigenvalues ---    0.09068   0.16111   0.16112   0.50838   1.00193
     Eigenvalues ---    1.00212
 Angle between quadratic step and forces=  28.24 degrees.
 Linear search not attempted -- first point.
 B after Tr=    -0.000077   -0.000035   -0.045317
         Rot=    1.000000    0.000000    0.000000    0.000000 Ang=   0.00 deg.
 Variable       Old X    -DE/DX   Delta X   Delta X   Delta X     New X
                                 (Linear)    (Quad)   (Total)
    X1        0.00022   0.00000   0.00000  -0.00021  -0.00029  -0.00007
    Y1       -0.00182   0.00000   0.00000  -0.00010  -0.00013  -0.00195
    Z1       -0.73050  -0.01390   0.00000  -0.12506  -0.17037  -0.90088
    X2       -1.61035   0.01126   0.00000   0.06864   0.06857  -1.54179
    Y2       -0.95689   0.00668   0.00000   0.04070   0.04066  -0.91622
    Z2       -0.29198   0.00461   0.00000   0.10197   0.05665  -0.23533
    X3       -0.02079   0.00017   0.00000   0.00115   0.00107  -0.01972
    Y3        1.87186  -0.01312   0.00000  -0.07966  -0.07969   1.79217
    Z3       -0.29665   0.00464   0.00000   0.10217   0.05685  -0.23980
    X4        1.63409  -0.01142   0.00000  -0.06927  -0.06935   1.56474
    Y4       -0.91950   0.00644   0.00000   0.03919   0.03916  -0.88034
    Z4       -0.29744   0.00465   0.00000   0.10219   0.05688  -0.24057
         Item               Value     Threshold  Converged?
 Maximum Force            0.013901     0.000450     NO 
 RMS     Force            0.008027     0.000300     NO 
 Maximum Displacement     0.170375     0.001800     NO 
 RMS     Displacement     0.069374     0.001200     NO 
 Predicted change in Energy=-3.145878D-03
 GradGradGradGradGradGradGradGradGradGradGradGradGradGradGradGradGradGrad

 Leave Link  103 at Thu Aug 20 16:13:05 2015, MaxMem=    26214400 cpu:               0.0 elap:               0.0
 (Enter /home/lijunj/Gauss/gdv-h37p/gdv/l9999.exe)

 Test job not archived.
 1\1\GINC-BL-CHEM-IYENGAR11\Force\RPM6\ZDO\H3O1(1+)\LIJUNJ\20-Aug-2015\
 0\\#p pm6 iop(2/29=1) force\\title\\1,1\O,0.000116,-0.000961,-0.386565
 \H,-0.852163,-0.506364,-0.154508\H,-0.011003,0.990547,-0.156979\H,0.86
 4723,-0.486579,-0.1574\\Version=AM64L-GDVRevH.37+\State=1-A\HF=0.23201
 46\RMSD=6.906e-09\RMSF=8.027e-03\Dipole=0.0010395,0.0004591,0.5536893\
 PG=C01 [X(H3O1)]\\@


 BUT 'GLORY' DOESN'T MEAN 'A NICE KNOCK DOWN ARGUMENT', ALICE OBJECTED.
 WHEN I USE A WORD, HUMPTY DUMPTY SAID, IN A RATHER SCORNFUL TONE,
 IT MEANS JUST WHAT I CHOOSE IT TO MEAN....
 NEITHER MORE NOR LESS....
 THE QUESTION IS, SAID ALICE,
 WHETHER YOU CAN MAKE WORDS MEAN SO MANY DIFFERENT THINGS...
 THE QUESTION IS, SAID HUMPTY DUMPTY,
 WHICH IS TO BE MASTER....
 THAT IS ALL.....

 ALICE THROUGH THE LOOKING GLASS
 Job cpu time:       0 days  0 hours  0 minutes  0.8 seconds.
 Elapsed time:       0 days  0 hours  0 minutes  0.6 seconds.
 File lengths (MBytes):  RWF=      5 Int=      0 D2E=      0 Chk=      2 Scr=      1
 Normal termination of Gaussian DV at Thu Aug 20 16:13:05 2015.
