 Entering Gaussian System, Link 0=gdv
 Initial command:
 /home/lijunj/Gauss/gdv-h37p/gdv/l1.exe "/scratch/lijunj/Gau-11418.inp" -scrdir="/scratch/lijunj/"
 Entering Link 1 = /home/lijunj/Gauss/gdv-h37p/gdv/l1.exe PID=     11419.
  
 Copyright (c) 1988,1990,1992,1993,1995,1998,2003,2009,2014,
            Gaussian, Inc.  All Rights Reserved.
  
 This is the private, development version of
 the Gaussian(R) DV system of programs. It is based on
 the Gaussian(R) 09 system (copyright 2009, Gaussian, Inc.),
 the Gaussian(R) 03 system (copyright 2003, Gaussian, Inc.),
 the Gaussian(R) 98 system (copyright 1998, Gaussian, Inc.),
 the Gaussian(R) 94 system (copyright 1995, Gaussian, Inc.),
 the Gaussian 92(TM) system (copyright 1992, Gaussian, Inc.),
 the Gaussian 90(TM) system (copyright 1990, Gaussian, Inc.),
 the Gaussian 88(TM) system (copyright 1988, Gaussian, Inc.),
 the Gaussian 86(TM) system (copyright 1986, Carnegie Mellon
 University), and the Gaussian 82(TM) system (copyright 1983,
 Carnegie Mellon University). Gaussian is a federally registered
 trademark of Gaussian, Inc.
  
 This software contains proprietary and confidential information,
 including trade secrets, belonging to Gaussian, Inc.
  
 This software is provided under written license and may be
 used, copied, transmitted, or stored only in accord with that
 written license.
  
 The following legend is applicable only to US Government
 contracts under FAR:
  
                    RESTRICTED RIGHTS LEGEND
  
 Use, reproduction and disclosure by the US Government is
 subject to restrictions as set forth in subparagraphs (a)
 and (c) of the Commercial Computer Software - Restricted
 Rights clause in FAR 52.227-19.
  
 Gaussian, Inc.
 340 Quinnipiac St., Bldg. 40, Wallingford CT 06492
  
  
 ---------------------------------------------------------------
 Warning -- This program may not be used in any manner that
 competes with the business of Gaussian, Inc. or will provide
 assistance to any competitor of Gaussian, Inc.  The licensee
 of this program is prohibited from giving any competitor of
 Gaussian, Inc. access to this program.  By using this program,
 the user acknowledges that Gaussian, Inc. is engaged in the
 business of creating and licensing software in the field of
 computational chemistry and represents and warrants to the
 licensee that it is not a competitor of Gaussian, Inc. and that
 it will not use this program in any manner prohibited above.
 ---------------------------------------------------------------
  

 Cite this work as:
 Gaussian Development Version, Revision H.37+,
 M. J. Frisch, G. W. Trucks, H. B. Schlegel, G. E. Scuseria, 
 M. A. Robb, J. R. Cheeseman, G. Scalmani, V. Barone, B. Mennucci, 
 G. A. Petersson, H. Nakatsuji, M. Caricato, X. Li, H. P. Hratchian, 
 A. F. Izmaylov, J. Bloino, B. G. Janesko, F. Lipparini, G. Zheng, 
 J. L. Sonnenberg, W. Liang, M. Hada, M. Ehara, K. Toyota, R. Fukuda, 
 J. Hasegawa, M. Ishida, T. Nakajima, Y. Honda, O. Kitao, H. Nakai, 
 T. Vreven, J. A. Montgomery, Jr., J. E. Peralta, F. Ogliaro, 
 M. Bearpark, J. J. Heyd, E. Brothers, K. N. Kudin, V. N. Staroverov, 
 T. Keith, R. Kobayashi, J. Normand, K. Raghavachari, A. Rendell, 
 J. C. Burant, S. S. Iyengar, J. Tomasi, M. Cossi, N. Rega, 
 J. M. Millam, M. Klene, J. E. Knox, J. B. Cross, V. Bakken, 
 C. Adamo, J. Jaramillo, R. Gomperts, R. E. Stratmann, O. Yazyev, 
 A. J. Austin, R. Cammi, C. Pomelli, J. W. Ochterski, R. L. Martin, 
 K. Morokuma, V. G. Zakrzewski, G. A. Voth, P. Salvador, 
 J. J. Dannenberg, S. Dapprich, P. V. Parandekar, N. J. Mayhall, 
 A. D. Daniels, O. Farkas, J. B. Foresman, J. V. Ortiz, 
 J. Cioslowski, and D. J. Fox, Gaussian, Inc., Wallingford CT, 2010.
 
 *******************************************
 Gaussian DV:  AM64L-GDVRevH.37+ 17-Apr-2014
                 20-Aug-2015 
 *******************************************
 %mem=200MB
 %chk=FHF.chk
 %nproc=1
 Will use up to    1 processors via shared memory.
 --------------------------------------
 #p b3lyp/6-31+g(d,p) iop(2/29=1) force
 --------------------------------------
 1/10=7,30=1,38=1/1,3;
 2/12=2,17=6,18=5,29=1,40=1/2;
 3/5=1,6=6,7=111,11=2,16=1,25=1,30=1,71=1,74=-5/1,2,3;
 4//1;
 5/5=2,38=5/2;
 6/7=2,8=2,9=2,10=2,28=1/1;
 7/29=1/1,2,3,16;
 1/10=7,30=1/3;
 99//99;
 Leave Link    1 at Thu Aug 20 16:13:02 2015, MaxMem=    26214400 cpu:               0.0 elap:               0.0
 (Enter /home/lijunj/Gauss/gdv-h37p/gdv/l101.exe)
 -----
 title
 -----
 Symbolic Z-matrix:
 Charge =  1 Multiplicity = 1
 O                     0.00012  -0.00096  -0.38657 
 H                    -0.85216  -0.50636  -0.15451 
 H                    -0.011     0.99055  -0.15698 
 H                     0.86472  -0.48658  -0.1574 
 
 ITRead=  0  0  0  0
 MicOpt= -1 -1 -1 -1
 NAtoms=      4 NQM=        4 NQMF=       0 NMMI=      0 NMMIF=      0
                NMic=       0 NMicF=      0.
                    Isotopes and Nuclear Properties:
 (Nuclear quadrupole moments (NQMom) in fm**2, nuclear magnetic moments (NMagM)
  in nuclear magnetons)

  Atom         1           2           3           4
 IAtWgt=          16           1           1           1
 AtmWgt=  15.9949146   1.0078250   1.0078250   1.0078250
 NucSpn=           0           1           1           1
 AtZEff=   0.0000000   0.0000000   0.0000000   0.0000000
 NQMom=    0.0000000   0.0000000   0.0000000   0.0000000
 NMagM=    0.0000000   2.7928460   2.7928460   2.7928460
 AtZNuc=   8.0000000   1.0000000   1.0000000   1.0000000
 Leave Link  101 at Thu Aug 20 16:13:03 2015, MaxMem=    26214400 cpu:               0.1 elap:               0.1
 (Enter /home/lijunj/Gauss/gdv-h37p/gdv/l103.exe)

 GradGradGradGradGradGradGradGradGradGradGradGradGradGradGradGradGradGrad
 Berny optimization.
 Initialization pass.
 Trust Radius=3.00D-01 FncErr=1.00D-07 GrdErr=1.00D-07 EigMax=2.50D+02 EigMin=1.00D-04
 Number of steps in this run=      2 maximum allowed number of steps=      2.
 GradGradGradGradGradGradGradGradGradGradGradGradGradGradGradGradGradGrad

 Leave Link  103 at Thu Aug 20 16:13:03 2015, MaxMem=    26214400 cpu:               0.0 elap:               0.0
 (Enter /home/lijunj/Gauss/gdv-h37p/gdv/l202.exe)
                          Input orientation:                          
 ---------------------------------------------------------------------
 Center     Atomic      Atomic             Coordinates (Angstroms)
 Number     Number       Type             X           Y           Z
 ---------------------------------------------------------------------
      1          8           0        0.000116   -0.000961   -0.386565
      2          1           0       -0.852163   -0.506364   -0.154508
      3          1           0       -0.011003    0.990547   -0.156979
      4          1           0        0.864723   -0.486579   -0.157400
 ---------------------------------------------------------------------
                    Distance matrix (angstroms):
                    1          2          3          4
     1  O    0.000000
     2  H    1.017675   0.000000
     3  H    1.017802   1.717061   0.000000
     4  H    1.017785   1.717002   1.717206   0.000000
 Stoichiometry    H3O(1+)
 Framework group  C1[X(H3O)]
 Deg. of freedom     6
 Full point group                 C1      NOp   1
 Largest Abelian subgroup         C1      NOp   1
 Largest concise Abelian subgroup C1      NOp   1
                         Standard orientation:                         
 ---------------------------------------------------------------------
 Center     Atomic      Atomic             Coordinates (Angstroms)
 Number     Number       Type             X           Y           Z
 ---------------------------------------------------------------------
      1          8           0        0.000002    0.000005   -0.062801
      2          1           0       -0.139948    0.981355    0.167474
      3          1           0        0.919974   -0.369520    0.167469
      4          1           0       -0.780044   -0.611872    0.167463
 ---------------------------------------------------------------------
 Rotational constants (GHZ):    311.8939190    311.8132101    170.0771500
 Leave Link  202 at Thu Aug 20 16:13:03 2015, MaxMem=    26214400 cpu:               0.0 elap:               0.0
 (Enter /home/lijunj/Gauss/gdv-h37p/gdv/l301.exe)
 Standard basis: 6-31+G(d,p) (6D, 7F)
 Ernie: Thresh=  0.10000D-02 Tol=  0.10000D-05 Strict=F.
 There are    34 symmetry adapted cartesian basis functions of A   symmetry.
 There are    34 symmetry adapted basis functions of A   symmetry.
    34 basis functions,    53 primitive gaussians,    34 cartesian basis functions
     5 alpha electrons        5 beta electrons
       nuclear repulsion energy        13.4032525055 Hartrees.
 IExCor=  402 DFT=T Ex+Corr=B3LYP ExCW=0 ScaHFX=  0.200000
 ScaDFX=  0.800000  0.720000  1.000000  0.810000 ScalE2=  1.000000  1.000000
 IRadAn=      0 IRanWt=     -1 IRanGd=            0 ICorTp=0 IEmpDi=  4
 NAtoms=    4 NActive=    4 NUniq=    4 SFac= 1.00D+00 NAtFMM=   60 NAOKFM=F Big=F
 Integral buffers will be    131072 words long.
 Raffenetti 2 integral format.
 Two-electron integral symmetry is turned on.
 Leave Link  301 at Thu Aug 20 16:13:03 2015, MaxMem=    26214400 cpu:               0.1 elap:               0.0
 (Enter /home/lijunj/Gauss/gdv-h37p/gdv/l302.exe)
 NPDir=0 NMtPBC=     1 NCelOv=     1 NCel=       1 NClECP=     1 NCelD=      1
         NCelK=      1 NCelE2=     1 NClLst=     1 CellRange=     0.0.
 One-electron integrals computed using PRISM.
 One-electron integral symmetry used in STVInt
 NBasis=    34 RedAO= T EigKep=  1.75D-02  NBF=    34
 NBsUse=    34 1.00D-06 EigRej= -1.00D+00 NBFU=    34
 Precomputing XC quadrature grid using
 IXCGrd= 4 IRadAn=           0 IRanWt=          -1 IRanGd=           0 AccXCQ= 0.00D+00.
 Generated NRdTot=       0 NPtTot=           0 NUsed=           0 NTot=          32
 NSgBfM=    34    34    34    34    34 MxSgAt=     4 MxSgA2=     4.
 Leave Link  302 at Thu Aug 20 16:13:03 2015, MaxMem=    26214400 cpu:               0.1 elap:               0.1
 (Enter /home/lijunj/Gauss/gdv-h37p/gdv/l303.exe)
 DipDrv:  MaxL=1.
 Leave Link  303 at Thu Aug 20 16:13:03 2015, MaxMem=    26214400 cpu:               0.0 elap:               0.0
 (Enter /home/lijunj/Gauss/gdv-h37p/gdv/l401.exe)
 ExpMin= 8.45D-02 ExpMax= 5.48D+03 ExpMxC= 8.25D+02 IAcc=2 IRadAn=         4 AccDes= 0.00D+00
 Harris functional with IExCor=  402 and IRadAn=       4 diagonalized for initial guess.
 HarFok:  IExCor=  402 AccDes= 0.00D+00 IRadAn=         4 IDoV= 1 UseB2=F ITyADJ=14
 ICtDFT=  3500011 ScaDFX=  1.000000  1.000000  1.000000  1.000000
 FoFCou: FMM=F IPFlag=           0 FMFlag=      100000 FMFlg1=           0
         NFxFlg=           0 DoJE=T BraDBF=F KetDBF=T FulRan=T
         wScrn=  0.000000 ICntrl=       500 IOpCl=  0 I1Cent=   200000004 NGrid=           0
         NMat0=    1 NMatS0=      1 NMatT0=    0 NMatD0=    1 NMtDS0=    0 NMtDT0=    0
 Petite list used in FoFCou.
 Harris En= -76.8175356611412    
 JPrj=0 DoOrth=F DoCkMO=F.
 Leave Link  401 at Thu Aug 20 16:13:03 2015, MaxMem=    26214400 cpu:               0.2 elap:               0.2
 (Enter /home/lijunj/Gauss/gdv-h37p/gdv/l502.exe)
 Keep R1 ints in memory in canonical form, NReq=1037668.
 FoFCou: FMM=F IPFlag=           0 FMFlag=           0 FMFlg1=           0
         NFxFlg=           0 DoJE=F BraDBF=F KetDBF=F FulRan=T
         wScrn=  0.000000 ICntrl=       600 IOpCl=  0 I1Cent=           0 NGrid=           0
         NMat0=    1 NMatS0=    595 NMatT0=    0 NMatD0=    1 NMtDS0=    0 NMtDT0=    0
 Symmetry not used in FoFCou.
 Two-electron integral symmetry not used.
 Closed shell SCF:
 Using DIIS extrapolation, IDIIS=  1040.
 NGot=    26214400 LenX=    26034193 LenY=    26032596
 Requested convergence on RMS density matrix=1.00D-08 within 128 cycles.
 Requested convergence on MAX density matrix=1.00D-06.
 Requested convergence on             energy=1.00D-06.
 No special actions if energy rises.
 Integral accuracy reduced to 1.0D-05 until final iterations.

 Cycle   1  Pass 0  IDiag  1:
 E= -76.6903992987761    
 DIIS: error= 2.46D-02 at cycle   1 NSaved=   1.
 NSaved= 1 IEnMin= 1 EnMin= -76.6903992987761     IErMin= 1 ErrMin= 2.46D-02
 ErrMax= 2.46D-02  0.00D+00 EMaxC= 1.00D-01 BMatC= 2.18D-02 BMatP= 2.18D-02
 IDIUse=3 WtCom= 7.54D-01 WtEn= 2.46D-01
 Coeff-Com:  0.100D+01
 Coeff-En:   0.100D+01
 Coeff:      0.100D+01
 Gap=     0.393 Goal=   None    Shift=    0.000
 GapD=    0.393 DampG=1.000 DampE=0.500 DampFc=0.5000 IDamp=-1.
 Damping current iteration by 5.00D-01
 RMSDP=4.63D-03 MaxDP=6.69D-02              OVMax= 6.77D-02

 Cycle   2  Pass 0  IDiag  1:
 E= -76.6956924498033     Delta-E=       -0.005293151027 Rises=F Damp=T
 DIIS: error= 8.06D-03 at cycle   2 NSaved=   2.
 NSaved= 2 IEnMin= 2 EnMin= -76.6956924498033     IErMin= 2 ErrMin= 8.06D-03
 ErrMax= 8.06D-03  0.00D+00 EMaxC= 1.00D-01 BMatC= 1.54D-03 BMatP= 2.18D-02
 IDIUse=3 WtCom= 9.19D-01 WtEn= 8.06D-02
 Coeff-Com:  0.113D+00 0.887D+00
 Coeff-En:   0.229D+00 0.771D+00
 Coeff:      0.122D+00 0.878D+00
 Gap=     0.446 Goal=   None    Shift=    0.000
 RMSDP=1.06D-03 MaxDP=1.07D-02 DE=-5.29D-03 OVMax= 4.21D-02

 Cycle   3  Pass 0  IDiag  1:
 E= -76.7043551542275     Delta-E=       -0.008662704424 Rises=F Damp=F
 DIIS: error= 2.49D-03 at cycle   3 NSaved=   3.
 NSaved= 3 IEnMin= 3 EnMin= -76.7043551542275     IErMin= 3 ErrMin= 2.49D-03
 ErrMax= 2.49D-03  0.00D+00 EMaxC= 1.00D-01 BMatC= 2.28D-04 BMatP= 1.54D-03
 IDIUse=3 WtCom= 9.75D-01 WtEn= 2.49D-02
 Coeff-Com: -0.520D-01 0.198D+00 0.854D+00
 Coeff-En:   0.000D+00 0.000D+00 0.100D+01
 Coeff:     -0.507D-01 0.193D+00 0.858D+00
 Gap=     0.445 Goal=   None    Shift=    0.000
 RMSDP=2.54D-04 MaxDP=2.96D-03 DE=-8.66D-03 OVMax= 3.71D-03

 Cycle   4  Pass 0  IDiag  1:
 E= -76.7045159802813     Delta-E=       -0.000160826054 Rises=F Damp=F
 DIIS: error= 2.82D-04 at cycle   4 NSaved=   4.
 NSaved= 4 IEnMin= 4 EnMin= -76.7045159802813     IErMin= 4 ErrMin= 2.82D-04
 ErrMax= 2.82D-04  0.00D+00 EMaxC= 1.00D-01 BMatC= 2.65D-06 BMatP= 2.28D-04
 IDIUse=3 WtCom= 9.97D-01 WtEn= 2.82D-03
 Coeff-Com: -0.129D-01 0.233D-01 0.189D+00 0.801D+00
 Coeff-En:   0.000D+00 0.000D+00 0.000D+00 0.100D+01
 Coeff:     -0.129D-01 0.233D-01 0.188D+00 0.801D+00
 Gap=     0.445 Goal=   None    Shift=    0.000
 RMSDP=3.38D-05 MaxDP=2.80D-04 DE=-1.61D-04 OVMax= 5.72D-04

 Cycle   5  Pass 0  IDiag  1:
 E= -76.7045179460107     Delta-E=       -0.000001965729 Rises=F Damp=F
 DIIS: error= 2.05D-05 at cycle   5 NSaved=   5.
 NSaved= 5 IEnMin= 5 EnMin= -76.7045179460107     IErMin= 5 ErrMin= 2.05D-05
 ErrMax= 2.05D-05  0.00D+00 EMaxC= 1.00D-01 BMatC= 5.23D-09 BMatP= 2.65D-06
 IDIUse=1 WtCom= 1.00D+00 WtEn= 0.00D+00
 Coeff-Com:  0.647D-03-0.144D-02-0.416D-02-0.106D-01 0.102D+01
 Coeff:      0.647D-03-0.144D-02-0.416D-02-0.106D-01 0.102D+01
 Gap=     0.445 Goal=   None    Shift=    0.000
 RMSDP=1.54D-06 MaxDP=3.30D-05 DE=-1.97D-06 OVMax= 3.79D-05

 Initial convergence to 1.0D-05 achieved.  Increase integral accuracy.
 Cycle   6  Pass 1  IDiag  1:
 E= -76.7045157787250     Delta-E=        0.000002167286 Rises=F Damp=F
 DIIS: error= 5.16D-06 at cycle   1 NSaved=   1.
 NSaved= 1 IEnMin= 1 EnMin= -76.7045157787250     IErMin= 1 ErrMin= 5.16D-06
 ErrMax= 5.16D-06  0.00D+00 EMaxC= 1.00D-01 BMatC= 6.74D-10 BMatP= 6.74D-10
 IDIUse=1 WtCom= 1.00D+00 WtEn= 0.00D+00
 Coeff-Com:  0.100D+01
 Coeff:      0.100D+01
 Gap=     0.445 Goal=   None    Shift=    0.000
 RMSDP=1.54D-06 MaxDP=3.30D-05 DE= 2.17D-06 OVMax= 3.32D-05

 Cycle   7  Pass 1  IDiag  1:
 E= -76.7045157804484     Delta-E=       -0.000000001723 Rises=F Damp=F
 DIIS: error= 1.11D-06 at cycle   2 NSaved=   2.
 NSaved= 2 IEnMin= 2 EnMin= -76.7045157804484     IErMin= 2 ErrMin= 1.11D-06
 ErrMax= 1.11D-06  0.00D+00 EMaxC= 1.00D-01 BMatC= 3.46D-11 BMatP= 6.74D-10
 IDIUse=1 WtCom= 1.00D+00 WtEn= 0.00D+00
 Coeff-Com: -0.893D-02 0.101D+01
 Coeff:     -0.893D-02 0.101D+01
 Gap=     0.445 Goal=   None    Shift=    0.000
 RMSDP=3.20D-07 MaxDP=3.90D-06 DE=-1.72D-09 OVMax= 3.56D-06

 Cycle   8  Pass 1  IDiag  1:
 E= -76.7045157804400     Delta-E=        0.000000000008 Rises=F Damp=F
 DIIS: error= 1.47D-06 at cycle   3 NSaved=   3.
 NSaved= 3 IEnMin= 2 EnMin= -76.7045157804484     IErMin= 2 ErrMin= 1.11D-06
 ErrMax= 1.47D-06  0.00D+00 EMaxC= 1.00D-01 BMatC= 5.97D-11 BMatP= 3.46D-11
 IDIUse=1 WtCom= 1.00D+00 WtEn= 0.00D+00
 Coeff-Com: -0.396D-01 0.601D+00 0.439D+00
 Coeff:     -0.396D-01 0.601D+00 0.439D+00
 Gap=     0.445 Goal=   None    Shift=    0.000
 RMSDP=1.09D-07 MaxDP=1.75D-06 DE= 8.34D-12 OVMax= 1.74D-06

 Cycle   9  Pass 1  IDiag  1:
 E= -76.7045157804809     Delta-E=       -0.000000000041 Rises=F Damp=F
 DIIS: error= 5.73D-08 at cycle   4 NSaved=   4.
 NSaved= 4 IEnMin= 4 EnMin= -76.7045157804809     IErMin= 4 ErrMin= 5.73D-08
 ErrMax= 5.73D-08  0.00D+00 EMaxC= 1.00D-01 BMatC= 9.55D-14 BMatP= 3.46D-11
 IDIUse=1 WtCom= 1.00D+00 WtEn= 0.00D+00
 Coeff-Com: -0.829D-02 0.106D+00 0.818D-01 0.820D+00
 Coeff:     -0.829D-02 0.106D+00 0.818D-01 0.820D+00
 Gap=     0.445 Goal=   None    Shift=    0.000
 RMSDP=8.97D-09 MaxDP=9.83D-08 DE=-4.08D-11 OVMax= 1.14D-07

 SCF Done:  E(RB3LYP) =  -76.7045157805     A.U. after    9 cycles
            NFock=  9  Conv=0.90D-08     -V/T= 2.0117
 KE= 7.581616161239D+01 PE=-2.034184761640D+02 EE= 3.749454626566D+01
 Leave Link  502 at Thu Aug 20 16:13:04 2015, MaxMem=    26214400 cpu:               0.7 elap:               0.7
 (Enter /home/lijunj/Gauss/gdv-h37p/gdv/l601.exe)
 Copying SCF densities to generalized density rwf, IOpCl= 0 IROHF=0.

 **********************************************************************

            Population analysis using the SCF density.

 **********************************************************************

 Orbital symmetries:
       Occupied  (A) (A) (A) (A) (A)
       Virtual   (A) (A) (A) (A) (A) (A) (A) (A) (A) (A) (A) (A)
                 (A) (A) (A) (A) (A) (A) (A) (A) (A) (A) (A) (A)
                 (A) (A) (A) (A) (A)
 The electronic state is 1-A.
 Alpha  occ. eigenvalues --  -19.59056  -1.42777  -0.92218  -0.92217  -0.72800
 Alpha virt. eigenvalues --   -0.28329  -0.17769  -0.17765  -0.09174  -0.07458
 Alpha virt. eigenvalues --   -0.07457  -0.02494   0.56418   0.56421   0.65120
 Alpha virt. eigenvalues --    0.73926   0.73931   0.76354   0.92985   1.08103
 Alpha virt. eigenvalues --    1.08106   1.64782   1.67463   1.86920   1.86937
 Alpha virt. eigenvalues --    2.15044   2.15048   2.22648   2.59111   2.59127
 Alpha virt. eigenvalues --    2.85959   3.05345   3.05356   3.65547
          Condensed to atoms (all electrons):
               1          2          3          4
     1  O    7.647681   0.285006   0.284975   0.284977
     2  H    0.285006   0.236140  -0.010999  -0.011000
     3  H    0.284975  -0.010999   0.236123  -0.010997
     4  H    0.284977  -0.011000  -0.010997   0.236131
 Mulliken charges:
               1
     1  O   -0.502640
     2  H    0.500853
     3  H    0.500898
     4  H    0.500889
 Sum of Mulliken charges =   1.00000
 Mulliken charges with hydrogens summed into heavy atoms:
               1
     1  O    1.000000
 Electronic spatial extent (au):  <R**2>=             19.0255
 Charge=              1.0000 electrons
 Dipole moment (field-independent basis, Debye):
    X=              0.0000    Y=             -0.0002    Z=              1.3311  Tot=              1.3311
 Quadrupole moment (field-independent basis, Debye-Ang):
   XX=             -2.1530   YY=             -2.1544   ZZ=             -6.5652
   XY=              0.0000   XZ=              0.0000   YZ=              0.0000
 Traceless Quadrupole moment (field-independent basis, Debye-Ang):
   XX=              1.4712   YY=              1.4698   ZZ=             -2.9410
   XY=              0.0000   XZ=              0.0000   YZ=              0.0000
 Octapole moment (field-independent basis, Debye-Ang**2):
  XXX=              0.8597  YYY=              1.8992  ZZZ=              0.5663  XYY=             -0.8595
  XXY=             -1.9000  XXZ=              0.8602  XZZ=              0.0000  YZZ=              0.0000
  YYZ=              0.8599  XYZ=              0.0000
 Hexadecapole moment (field-independent basis, Debye-Ang**3):
 XXXX=             -2.9603 YYYY=             -2.9618 ZZZZ=             -5.4325 XXXY=              0.0000
 XXXZ=              0.1661 YYYX=              0.0000 YYYZ=              0.3670 ZZZX=              0.0000
 ZZZY=              0.0000 XXYY=             -0.9869 XXZZ=             -1.8438 YYZZ=             -1.8437
 XXYZ=             -0.3671 YYXZ=             -0.1661 ZZXY=              0.0000
 N-N= 1.340325250551D+01 E-N=-2.034184753734D+02  KE= 7.581616161239D+01
 No NMR shielding tensors so no spin-rotation constants.
 Leave Link  601 at Thu Aug 20 16:13:04 2015, MaxMem=    26214400 cpu:               0.1 elap:               0.1
 (Enter /home/lijunj/Gauss/gdv-h37p/gdv/l701.exe)
 Compute integral first derivatives.
 ... and contract with generalized density number  0.
 Leave Link  701 at Thu Aug 20 16:13:04 2015, MaxMem=    26214400 cpu:               0.1 elap:               0.1
 (Enter /home/lijunj/Gauss/gdv-h37p/gdv/l702.exe)
 L702 exits ... SP integral derivatives will be done elsewhere.
 Leave Link  702 at Thu Aug 20 16:13:04 2015, MaxMem=    26214400 cpu:               0.0 elap:               0.0
 (Enter /home/lijunj/Gauss/gdv-h37p/gdv/l703.exe)
 Compute integral first derivatives, UseDBF=F ICtDFT=           0.
 Integral derivatives from FoFJK, PRISM(SPDF).
 Calling FoFJK, ICntrl=      2127 FMM=F ISym2X=0 I1Cent= 0 IOpClX= 0 NMat=1 NMatS=1 NMatT=0.
 FoFJK:  IHMeth= 1 ICntrl=    2127 DoSepK=F KAlg= 0 I1Cent=           0 FoldK=F
 IRaf=         0 NMat=       1 IRICut=       1 DoRegI=T DoRafI=F ISym2E= 0.
 FoFCou: FMM=F IPFlag=           0 FMFlag=      100000 FMFlg1=         800
         NFxFlg=           0 DoJE=F BraDBF=F KetDBF=F FulRan=T
         wScrn=  0.000000 ICntrl=      2127 IOpCl=  0 I1Cent=           0 NGrid=           0
         NMat0=    1 NMatS0=      1 NMatT0=    0 NMatD0=    1 NMtDS0=    0 NMtDT0=    0
 Symmetry not used in FoFCou.
 Leave Link  703 at Thu Aug 20 16:13:04 2015, MaxMem=    26214400 cpu:               0.3 elap:               0.3
 (Enter /home/lijunj/Gauss/gdv-h37p/gdv/l716.exe)
 Dipole        = 2.66820330D-06-8.46632383D-05 5.23705342D-01
 ***** Axes restored to original set *****
 -------------------------------------------------------------------
 Center     Atomic                   Forces (Hartrees/Bohr)
 Number     Number              X              Y              Z
 -------------------------------------------------------------------
      1        8           0.000090809    0.000053841    0.014442759
      2        1           0.025013759    0.014836063   -0.004862934
      3        1           0.000333918   -0.029187801   -0.004798100
      4        1          -0.025438486    0.014297897   -0.004781725
 -------------------------------------------------------------------
 Cartesian Forces:  Max     0.029187801 RMS     0.015350141
 Z-matrix is all fixed cartesians, so copy forces.
 Force constants in Cartesian coordinates: 
                1             2             3             4             5 
      1  0.788071D+00
      2  0.437657D-04  0.788037D+00
      3 -0.110276D-02 -0.483633D-03  0.157612D+00
      4 -0.337286D+00 -0.136718D+00  0.794138D-01  0.333648D+00
      5 -0.136728D+00 -0.187826D+00  0.470690D-01  0.153379D+00  0.165962D+00
      6  0.105572D+00  0.625784D-01 -0.529342D-01 -0.826686D-01 -0.490042D-01
      7 -0.106763D+00  0.342073D-02  0.115168D-02  0.162144D-01 -0.338997D-01
      8  0.346639D-02 -0.418676D+00 -0.913395D-01  0.150256D-02 -0.346744D-02
      9  0.150311D-02 -0.121748D+00 -0.523838D-01 -0.570381D-02  0.133330D-01
     10 -0.344022D+00  0.133253D+00 -0.794627D-01 -0.125764D-01  0.172485D-01
     11  0.133218D+00 -0.181535D+00  0.447542D-01 -0.181636D-01  0.253310D-01
     12 -0.105973D+00  0.596531D-01 -0.522942D-01  0.895868D-02 -0.113977D-01
                6             7             8             9            10 
      6  0.367651D-01
      7 -0.142803D-01  0.750284D-01
      8 -0.203335D-02 -0.389984D-02  0.424848D+00
      9  0.808978D-02 -0.116808D-02  0.950702D-01  0.362713D-01
     10 -0.862344D-02  0.155200D-01 -0.106911D-02  0.536878D-02  0.341078D+00
     11 -0.115408D-01  0.343789D-01 -0.270445D-02  0.133447D-01 -0.149433D+00
     12  0.807927D-02  0.142967D-01 -0.169735D-02  0.802269D-02  0.827174D-01
               11            12 
     11  0.158908D+00
     12 -0.465581D-01  0.361922D-01
 Leave Link  716 at Thu Aug 20 16:13:04 2015, MaxMem=    26214400 cpu:               0.0 elap:               0.0
 (Enter /home/lijunj/Gauss/gdv-h37p/gdv/l103.exe)

 GradGradGradGradGradGradGradGradGradGradGradGradGradGradGradGradGradGrad
 Berny optimization.
 Search for a local minimum.
 Step number   1 out of a maximum of    2
 All quantities printed in internal units (Hartrees-Bohrs-Radians)
 Second derivative matrix not updated -- first step.
 The second derivative matrix:
                          X1        Y1        Z1        X2        Y2
           X1           0.78807
           Y1           0.00004   0.78804
           Z1          -0.00110  -0.00048   0.15761
           X2          -0.33729  -0.13672   0.07941   0.33365
           Y2          -0.13673  -0.18783   0.04707   0.15338   0.16596
           Z2           0.10557   0.06258  -0.05293  -0.08267  -0.04900
           X3          -0.10676   0.00342   0.00115   0.01621  -0.03390
           Y3           0.00347  -0.41868  -0.09134   0.00150  -0.00347
           Z3           0.00150  -0.12175  -0.05238  -0.00570   0.01333
           X4          -0.34402   0.13325  -0.07946  -0.01258   0.01725
           Y4           0.13322  -0.18153   0.04475  -0.01816   0.02533
           Z4          -0.10597   0.05965  -0.05229   0.00896  -0.01140
                          Z2        X3        Y3        Z3        X4
           Z2           0.03677
           X3          -0.01428   0.07503
           Y3          -0.00203  -0.00390   0.42485
           Z3           0.00809  -0.00117   0.09507   0.03627
           X4          -0.00862   0.01552  -0.00107   0.00537   0.34108
           Y4          -0.01154   0.03438  -0.00270   0.01334  -0.14943
           Z4           0.00808   0.01430  -0.00170   0.00802   0.08272
                          Y4        Z4
           Y4           0.15891
           Z4          -0.04656   0.03619
 ITU=  0
     Eigenvalues ---    0.08594   0.15965   0.15967   0.50200   0.94749
     Eigenvalues ---    0.94768
 Angle between quadratic step and forces=  35.09 degrees.
 Linear search not attempted -- first point.
 B after Tr=    -0.000008   -0.000003   -0.010465
         Rot=    1.000000   -0.000001    0.000001    0.000000 Ang=   0.00 deg.
 Variable       Old X    -DE/DX   Delta X   Delta X   Delta X     New X
                                 (Linear)    (Quad)   (Total)
    X1        0.00022   0.00009   0.00000  -0.00002  -0.00002   0.00020
    Y1       -0.00182   0.00005   0.00000   0.00000  -0.00001  -0.00182
    Z1       -0.73050   0.01444   0.00000  -0.02289  -0.03336  -0.76386
    X2       -1.61035   0.02501   0.00000   0.06705   0.06705  -1.54331
    Y2       -0.95689   0.01484   0.00000   0.03977   0.03977  -0.91712
    Z2       -0.29198  -0.00486   0.00000   0.02146   0.01099  -0.28099
    X3       -0.02079   0.00033   0.00000   0.00100   0.00099  -0.01980
    Y3        1.87186  -0.02919   0.00000  -0.07811  -0.07811   1.79375
    Z3       -0.29665  -0.00480   0.00000   0.02163   0.01117  -0.28548
    X4        1.63409  -0.02544   0.00000  -0.06801  -0.06801   1.56608
    Y4       -0.91950   0.01430   0.00000   0.03835   0.03835  -0.88115
    Z4       -0.29744  -0.00478   0.00000   0.02166   0.01120  -0.28624
         Item               Value     Threshold  Converged?
 Maximum Force            0.029188     0.000450     NO 
 RMS     Force            0.015350     0.000300     NO 
 Maximum Displacement     0.078112     0.001800     NO 
 RMS     Displacement     0.040579     0.001200     NO 
 Predicted change in Energy=-3.091718D-03
 GradGradGradGradGradGradGradGradGradGradGradGradGradGradGradGradGradGrad

 Leave Link  103 at Thu Aug 20 16:13:04 2015, MaxMem=    26214400 cpu:               0.0 elap:               0.0
 (Enter /home/lijunj/Gauss/gdv-h37p/gdv/l9999.exe)

 Test job not archived.
 1\1\GINC-BL-CHEM-IYENGAR11\Force\RB3LYP\6-31+G(d,p)\H3O1(1+)\LIJUNJ\20
 -Aug-2015\0\\#p b3lyp/6-31+g(d,p) iop(2/29=1) force\\title\\1,1\O,0.00
 0116,-0.000961,-0.386565\H,-0.852163,-0.506364,-0.154508\H,-0.011003,0
 .990547,-0.156979\H,0.864723,-0.486579,-0.1574\\Version=AM64L-GDVRevH.
 37+\State=1-A\HF=-76.7045158\RMSD=8.973e-09\RMSF=1.535e-02\Dipole=0.00
 09517,0.0004063,0.5237043\Quadrupole=1.0929211,1.0936205,-2.1865416,-0
 .0003499,-0.0054779,-0.0023256\PG=C01 [X(H3O1)]\\@


 ABSOLUTISM, OBSOLETISM -- IF IT WORKS, IT'S OUT OF DATE

                          -- STAFFORD BEER
 Job cpu time:       0 days  0 hours  0 minutes  2.0 seconds.
 Elapsed time:       0 days  0 hours  0 minutes  1.7 seconds.
 File lengths (MBytes):  RWF=      5 Int=      0 D2E=      0 Chk=      2 Scr=      1
 Normal termination of Gaussian DV at Thu Aug 20 16:13:04 2015.
